# vtk DataFile Version 2.0
Unstructured Grid UFVM-ECOMOD
ASCII
DATASET UNSTRUCTURED_GRID
 POINTS         1810  float
  0.00000E+00  0.00000E+00  0.00000E+00
  0.40000E+01  0.00000E+00  0.00000E+00
  0.40000E+01  0.20000E+01  0.00000E+00
  0.00000E+00  0.20000E+01  0.00000E+00
  0.12217E+01  0.98333E+00  0.00000E+00
  0.81167E+00  0.11389E+01  0.00000E+00
  0.12217E+01  0.12944E+01  0.00000E+00
  0.10000E+00  0.00000E+00  0.00000E+00
  0.20000E+00  0.00000E+00  0.00000E+00
  0.30000E+00  0.00000E+00  0.00000E+00
  0.40000E+00  0.00000E+00  0.00000E+00
  0.50000E+00  0.00000E+00  0.00000E+00
  0.60000E+00  0.00000E+00  0.00000E+00
  0.70000E+00  0.00000E+00  0.00000E+00
  0.80000E+00  0.00000E+00  0.00000E+00
  0.90000E+00  0.00000E+00  0.00000E+00
  0.10000E+01  0.00000E+00  0.00000E+00
  0.11000E+01  0.00000E+00  0.00000E+00
  0.12000E+01  0.00000E+00  0.00000E+00
  0.13000E+01  0.00000E+00  0.00000E+00
  0.14000E+01  0.00000E+00  0.00000E+00
  0.15000E+01  0.00000E+00  0.00000E+00
  0.16000E+01  0.00000E+00  0.00000E+00
  0.17000E+01  0.00000E+00  0.00000E+00
  0.18000E+01  0.00000E+00  0.00000E+00
  0.19000E+01  0.00000E+00  0.00000E+00
  0.20000E+01  0.00000E+00  0.00000E+00
  0.21000E+01  0.00000E+00  0.00000E+00
  0.22000E+01  0.00000E+00  0.00000E+00
  0.23000E+01  0.00000E+00  0.00000E+00
  0.24000E+01  0.00000E+00  0.00000E+00
  0.25000E+01  0.00000E+00  0.00000E+00
  0.26000E+01  0.00000E+00  0.00000E+00
  0.27000E+01  0.00000E+00  0.00000E+00
  0.28000E+01  0.00000E+00  0.00000E+00
  0.29000E+01  0.00000E+00  0.00000E+00
  0.30000E+01  0.00000E+00  0.00000E+00
  0.31000E+01  0.00000E+00  0.00000E+00
  0.32000E+01  0.00000E+00  0.00000E+00
  0.33000E+01  0.00000E+00  0.00000E+00
  0.34000E+01  0.00000E+00  0.00000E+00
  0.35000E+01  0.00000E+00  0.00000E+00
  0.36000E+01  0.00000E+00  0.00000E+00
  0.37000E+01  0.00000E+00  0.00000E+00
  0.38000E+01  0.00000E+00  0.00000E+00
  0.39000E+01  0.00000E+00  0.00000E+00
  0.40000E+01  0.10000E+00  0.00000E+00
  0.40000E+01  0.20000E+00  0.00000E+00
  0.40000E+01  0.30000E+00  0.00000E+00
  0.40000E+01  0.40000E+00  0.00000E+00
  0.40000E+01  0.50000E+00  0.00000E+00
  0.40000E+01  0.60000E+00  0.00000E+00
  0.40000E+01  0.70000E+00  0.00000E+00
  0.40000E+01  0.80000E+00  0.00000E+00
  0.40000E+01  0.90000E+00  0.00000E+00
  0.40000E+01  0.10000E+01  0.00000E+00
  0.40000E+01  0.11000E+01  0.00000E+00
  0.40000E+01  0.12000E+01  0.00000E+00
  0.40000E+01  0.13000E+01  0.00000E+00
  0.40000E+01  0.14000E+01  0.00000E+00
  0.40000E+01  0.15000E+01  0.00000E+00
  0.40000E+01  0.16000E+01  0.00000E+00
  0.40000E+01  0.17000E+01  0.00000E+00
  0.40000E+01  0.18000E+01  0.00000E+00
  0.40000E+01  0.19000E+01  0.00000E+00
  0.39000E+01  0.20000E+01  0.00000E+00
  0.38000E+01  0.20000E+01  0.00000E+00
  0.37000E+01  0.20000E+01  0.00000E+00
  0.36000E+01  0.20000E+01  0.00000E+00
  0.35000E+01  0.20000E+01  0.00000E+00
  0.34000E+01  0.20000E+01  0.00000E+00
  0.33000E+01  0.20000E+01  0.00000E+00
  0.32000E+01  0.20000E+01  0.00000E+00
  0.31000E+01  0.20000E+01  0.00000E+00
  0.30000E+01  0.20000E+01  0.00000E+00
  0.29000E+01  0.20000E+01  0.00000E+00
  0.28000E+01  0.20000E+01  0.00000E+00
  0.27000E+01  0.20000E+01  0.00000E+00
  0.26000E+01  0.20000E+01  0.00000E+00
  0.25000E+01  0.20000E+01  0.00000E+00
  0.24000E+01  0.20000E+01  0.00000E+00
  0.23000E+01  0.20000E+01  0.00000E+00
  0.22000E+01  0.20000E+01  0.00000E+00
  0.21000E+01  0.20000E+01  0.00000E+00
  0.20000E+01  0.20000E+01  0.00000E+00
  0.19000E+01  0.20000E+01  0.00000E+00
  0.18000E+01  0.20000E+01  0.00000E+00
  0.17000E+01  0.20000E+01  0.00000E+00
  0.16000E+01  0.20000E+01  0.00000E+00
  0.15000E+01  0.20000E+01  0.00000E+00
  0.14000E+01  0.20000E+01  0.00000E+00
  0.13000E+01  0.20000E+01  0.00000E+00
  0.12000E+01  0.20000E+01  0.00000E+00
  0.11000E+01  0.20000E+01  0.00000E+00
  0.10000E+01  0.20000E+01  0.00000E+00
  0.90000E+00  0.20000E+01  0.00000E+00
  0.80000E+00  0.20000E+01  0.00000E+00
  0.70000E+00  0.20000E+01  0.00000E+00
  0.60000E+00  0.20000E+01  0.00000E+00
  0.50000E+00  0.20000E+01  0.00000E+00
  0.40000E+00  0.20000E+01  0.00000E+00
  0.30000E+00  0.20000E+01  0.00000E+00
  0.20000E+00  0.20000E+01  0.00000E+00
  0.10000E+00  0.20000E+01  0.00000E+00
  0.00000E+00  0.19000E+01  0.00000E+00
  0.00000E+00  0.18000E+01  0.00000E+00
  0.00000E+00  0.17000E+01  0.00000E+00
  0.00000E+00  0.16000E+01  0.00000E+00
  0.00000E+00  0.15000E+01  0.00000E+00
  0.00000E+00  0.14000E+01  0.00000E+00
  0.00000E+00  0.13000E+01  0.00000E+00
  0.00000E+00  0.12000E+01  0.00000E+00
  0.00000E+00  0.11000E+01  0.00000E+00
  0.00000E+00  0.10000E+01  0.00000E+00
  0.00000E+00  0.90000E+00  0.00000E+00
  0.00000E+00  0.80000E+00  0.00000E+00
  0.00000E+00  0.70000E+00  0.00000E+00
  0.00000E+00  0.60000E+00  0.00000E+00
  0.00000E+00  0.50000E+00  0.00000E+00
  0.00000E+00  0.40000E+00  0.00000E+00
  0.00000E+00  0.30000E+00  0.00000E+00
  0.00000E+00  0.20000E+00  0.00000E+00
  0.00000E+00  0.10000E+00  0.00000E+00
  0.11989E+01  0.99198E+00  0.00000E+00
  0.11761E+01  0.10006E+01  0.00000E+00
  0.11533E+01  0.10093E+01  0.00000E+00
  0.11306E+01  0.10179E+01  0.00000E+00
  0.11078E+01  0.10265E+01  0.00000E+00
  0.10850E+01  0.10352E+01  0.00000E+00
  0.10622E+01  0.10438E+01  0.00000E+00
  0.10394E+01  0.10525E+01  0.00000E+00
  0.10167E+01  0.10611E+01  0.00000E+00
  0.99389E+00  0.10697E+01  0.00000E+00
  0.97111E+00  0.10784E+01  0.00000E+00
  0.94833E+00  0.10870E+01  0.00000E+00
  0.92556E+00  0.10957E+01  0.00000E+00
  0.90278E+00  0.11043E+01  0.00000E+00
  0.88000E+00  0.11130E+01  0.00000E+00
  0.85722E+00  0.11216E+01  0.00000E+00
  0.83444E+00  0.11302E+01  0.00000E+00
  0.83444E+00  0.11475E+01  0.00000E+00
  0.85722E+00  0.11562E+01  0.00000E+00
  0.88000E+00  0.11648E+01  0.00000E+00
  0.90278E+00  0.11735E+01  0.00000E+00
  0.92556E+00  0.11821E+01  0.00000E+00
  0.94833E+00  0.11907E+01  0.00000E+00
  0.97111E+00  0.11994E+01  0.00000E+00
  0.99389E+00  0.12080E+01  0.00000E+00
  0.10167E+01  0.12167E+01  0.00000E+00
  0.10394E+01  0.12253E+01  0.00000E+00
  0.10622E+01  0.12340E+01  0.00000E+00
  0.10850E+01  0.12426E+01  0.00000E+00
  0.11078E+01  0.12512E+01  0.00000E+00
  0.11306E+01  0.12599E+01  0.00000E+00
  0.11533E+01  0.12685E+01  0.00000E+00
  0.11761E+01  0.12772E+01  0.00000E+00
  0.11989E+01  0.12858E+01  0.00000E+00
  0.12217E+01  0.12705E+01  0.00000E+00
  0.12217E+01  0.12466E+01  0.00000E+00
  0.12217E+01  0.12227E+01  0.00000E+00
  0.12217E+01  0.11987E+01  0.00000E+00
  0.12217E+01  0.11748E+01  0.00000E+00
  0.12217E+01  0.11508E+01  0.00000E+00
  0.12217E+01  0.11269E+01  0.00000E+00
  0.12217E+01  0.11030E+01  0.00000E+00
  0.12217E+01  0.10791E+01  0.00000E+00
  0.12217E+01  0.10551E+01  0.00000E+00
  0.12217E+01  0.10312E+01  0.00000E+00
  0.12217E+01  0.10073E+01  0.00000E+00
  0.12429E+01  0.10188E+01  0.00000E+00
  0.12399E+01  0.11882E+01  0.00000E+00
  0.21377E+01  0.78680E-01  0.00000E+00
  0.21538E+01  0.19174E+01  0.00000E+00
  0.83774E+00  0.11061E+01  0.00000E+00
  0.97541E+00  0.10554E+01  0.00000E+00
  0.11166E+01  0.10045E+01  0.00000E+00
  0.29463E+01  0.19156E+01  0.00000E+00
  0.26515E+01  0.81480E-01  0.00000E+00
  0.25477E+01  0.19110E+01  0.00000E+00
  0.30502E+01  0.68680E-01  0.00000E+00
  0.83912E+00  0.11750E+01  0.00000E+00
  0.95224E+00  0.12148E+01  0.00000E+00
  0.10661E+01  0.12580E+01  0.00000E+00
  0.11804E+01  0.13002E+01  0.00000E+00
  0.39119E+01  0.10505E+01  0.00000E+00
  0.17555E+01  0.84130E-01  0.00000E+00
  0.64649E+00  0.99150E-01  0.00000E+00
  0.17446E+01  0.19250E+01  0.00000E+00
  0.86600E-01  0.65000E+00  0.00000E+00
  0.14551E+01  0.78430E-01  0.00000E+00
  0.96058E+00  0.81690E-01  0.00000E+00
  0.33501E+01  0.19134E+01  0.00000E+00
  0.39162E+01  0.63967E+00  0.00000E+00
  0.82470E-01  0.14561E+01  0.00000E+00
  0.55009E+00  0.19215E+01  0.00000E+00
  0.85020E-01  0.95314E+00  0.00000E+00
  0.39167E+01  0.13623E+01  0.00000E+00
  0.33616E+01  0.95540E-01  0.00000E+00
  0.90682E+00  0.10774E+01  0.00000E+00
  0.10433E+01  0.10284E+01  0.00000E+00
  0.11799E+01  0.97718E+00  0.00000E+00
  0.12429E+01  0.10931E+01  0.00000E+00
  0.12436E+01  0.12583E+01  0.00000E+00
  0.85035E+00  0.19198E+01  0.00000E+00
  0.14457E+01  0.19288E+01  0.00000E+00
  0.11516E+01  0.19130E+01  0.00000E+00
  0.36450E+01  0.85340E-01  0.00000E+00
  0.84610E-01  0.34945E+00  0.00000E+00
  0.36500E+01  0.19134E+01  0.00000E+00
  0.35776E+00  0.89100E-01  0.00000E+00
  0.39086E+01  0.16476E+01  0.00000E+00
  0.39134E+01  0.35000E+00  0.00000E+00
  0.83900E-01  0.11460E+01  0.00000E+00
  0.35715E+00  0.19076E+01  0.00000E+00
  0.83410E-01  0.16549E+01  0.00000E+00
  0.12495E+01  0.81910E-01  0.00000E+00
  0.19505E+01  0.76550E-01  0.00000E+00
  0.23503E+01  0.82860E-01  0.00000E+00
  0.19504E+01  0.19252E+01  0.00000E+00
  0.23461E+01  0.19181E+01  0.00000E+00
  0.28427E+01  0.83720E-01  0.00000E+00
  0.31542E+01  0.19172E+01  0.00000E+00
  0.27508E+01  0.19148E+01  0.00000E+00
  0.39150E+01  0.84994E+00  0.00000E+00
  0.88020E+00  0.11939E+01  0.00000E+00
  0.99745E+00  0.12340E+01  0.00000E+00
  0.12424E+01  0.11389E+01  0.00000E+00
  0.11119E+01  0.12747E+01  0.00000E+00
  0.78910E-01  0.18478E+01  0.00000E+00
  0.38489E+01  0.73890E-01  0.00000E+00
  0.86600E-01  0.15000E+00  0.00000E+00
  0.38461E+01  0.19156E+01  0.00000E+00
  0.83750E-01  0.10487E+01  0.00000E+00
  0.16314E+00  0.10008E+01  0.00000E+00
  0.16591E+00  0.91287E+00  0.00000E+00
  0.23730E+00  0.95594E+00  0.00000E+00
  0.24013E+00  0.87512E+00  0.00000E+00
  0.30661E+00  0.91623E+00  0.00000E+00
  0.30296E+00  0.99591E+00  0.00000E+00
  0.30938E+00  0.83944E+00  0.00000E+00
  0.37444E+00  0.87856E+00  0.00000E+00
  0.37563E+00  0.80503E+00  0.00000E+00
  0.43612E+00  0.84332E+00  0.00000E+00
  0.43924E+00  0.77347E+00  0.00000E+00
  0.49710E+00  0.80859E+00  0.00000E+00
  0.50063E+00  0.74182E+00  0.00000E+00
  0.55658E+00  0.77549E+00  0.00000E+00
[...]
 POINT_DATA         1810
  
 SCALARS WL      float 1
 LOOKUP_TABLE default
  0.12435E-01
  0.19548E-02
 -0.97444E-03
  0.16175E-01
 -0.32089E-01
  0.26758E-01
 -0.14641E-01
  0.12532E-01
  0.12752E-01
  0.13010E-01
  0.13256E-01
  0.13393E-01
  0.13403E-01
  0.13142E-01
  0.12485E-01
  0.11551E-01
  0.10387E-01
  0.91312E-02
  0.78311E-02
  0.66989E-02
  0.57863E-02
  0.52229E-02
  0.49839E-02
  0.50685E-02
  0.54278E-02
  0.60394E-02
  0.68543E-02
  0.77192E-02
  0.85501E-02
  0.91095E-02
  0.93332E-02
  0.90957E-02
  0.84792E-02
  0.76164E-02
  0.66592E-02
  0.56577E-02
  0.48783E-02
  0.43066E-02
  0.41340E-02
  0.43356E-02
  0.47291E-02
  0.52705E-02
  0.56050E-02
  0.55507E-02
  0.47868E-02
  0.32892E-02
  0.00000E+00
  0.00000E+00
  0.00000E+00
  0.00000E+00
  0.00000E+00
  0.00000E+00
  0.00000E+00
  0.00000E+00
  0.00000E+00
  0.00000E+00
  0.00000E+00
  0.00000E+00
  0.00000E+00
  0.00000E+00
  0.00000E+00
  0.00000E+00
  0.00000E+00
  0.00000E+00
  0.00000E+00
 -0.11774E-02
 -0.10945E-02
 -0.29781E-03
  0.11311E-02
  0.29929E-02
  0.46943E-02
  0.62232E-02
  0.74859E-02
  0.81667E-02
  0.81895E-02
  0.75374E-02
  0.65218E-02
  0.55070E-02
  0.47838E-02
  0.44202E-02
  0.44925E-02
  0.45540E-02
  0.46480E-02
  0.47631E-02
  0.49632E-02
  0.50662E-02
  0.50335E-02
  0.48764E-02
  0.46750E-02
  0.45206E-02
  0.46564E-02
  0.51615E-02
  0.59363E-02
  0.70653E-02
  0.83229E-02
  0.96448E-02
  0.10892E-01
  0.11971E-01
  0.12876E-01
  0.13642E-01
  0.14334E-01
  0.14939E-01
  0.15494E-01
  0.15953E-01
  0.16217E-01
  0.16257E-01
  0.16308E-01
  0.16358E-01
  0.16391E-01
  0.16383E-01
  0.16301E-01
  0.16149E-01
  0.15907E-01
  0.15586E-01
  0.15202E-01
  0.14772E-01
  0.14309E-01
  0.13861E-01
  0.13453E-01
  0.13108E-01
  0.12817E-01
  0.12598E-01
  0.12465E-01
 -0.15375E-01
 -0.96541E-02
 -0.53143E-02
 -0.26684E-02
  0.11337E-02
  0.39209E-02
  0.47938E-02
  0.68881E-02
  0.87067E-02
  0.10384E-01
  0.11631E-01
  0.13432E-01
  0.14788E-01
  0.17004E-01
  0.18535E-01
  0.20509E-01
  0.23728E-01
  0.25824E-01
  0.22663E-01
  0.21435E-01
  0.19273E-01
  0.18417E-01
  0.16433E-01
  0.15652E-01
  0.14164E-01
  0.13071E-01
  0.11940E-01
  0.10592E-01
  0.92081E-02
  0.78243E-02
  0.60731E-02
  0.36172E-02
  0.84273E-03
 -0.31956E-02
 -0.19015E-01
 -0.19206E-01
 -0.21540E-01
 -0.25263E-01
 -0.30879E-01
 -0.37549E-01
 -0.43996E-01
 -0.48655E-01
 -0.50865E-01
 -0.50121E-01
 -0.46917E-01
 -0.43187E-01
 -0.45265E-01
 -0.28052E-01
  0.80286E-02
  0.47943E-02
  0.21448E-01
  0.11058E-01
 -0.12184E-02
  0.78661E-02
  0.80380E-02
  0.45044E-02
  0.45535E-02
  0.23128E-01
  0.16073E-01
  0.99091E-02
 -0.57935E-03
 -0.13149E-03
  0.52257E-02
  0.13280E-01
  0.48465E-02
  0.14105E-01
  0.53901E-02
  0.10847E-01
  0.54750E-02
  0.40524E-02
  0.16286E-01
  0.13335E-01
  0.15392E-01
 -0.42273E-02
  0.45489E-02
  0.15677E-01
  0.58297E-02
 -0.11591E-01
 -0.50830E-01
 -0.18534E-01
  0.10381E-01
  0.44301E-02
  0.64041E-02
  0.57114E-02
  0.13005E-01
  0.25724E-03
  0.13167E-01
 -0.25896E-02
  0.34304E-02
  0.15987E-01
  0.14643E-01
  0.16184E-01
  0.71736E-02
  0.64306E-02
  0.92595E-02
  0.50051E-02
  0.45941E-02
  0.62289E-02
  0.78723E-02
  0.59847E-02
  0.30432E-02
  0.20108E-01
  0.13525E-01
 -0.41847E-01
  0.71692E-02
  0.16086E-01
  0.41653E-02
  0.12605E-01
 -0.12825E-02
  0.15723E-01
  0.15572E-01
  0.15260E-01
  0.15486E-01
  0.15183E-01
  0.15424E-01
  0.15710E-01
  0.15109E-01
  0.15349E-01
  0.15005E-01
  0.15208E-01
  0.14847E-01
  0.14972E-01
  0.14590E-01
  0.14624E-01
  0.14209E-01
  0.14123E-01
  0.13723E-01
  0.13473E-01
  0.15420E-01
  0.13149E-01
  0.12709E-01
  0.13138E-01
  0.12169E-01
  0.11831E-01
  0.11066E-01
  0.10872E-01
  0.99201E-02
  0.98753E-02
  0.87455E-02
  0.87523E-02
  0.74107E-02
  0.76040E-02
  0.61125E-02
  0.65606E-02
  0.50147E-02
  0.13860E-01
  0.12712E-01
  0.56652E-02
  0.40525E-02
  0.30358E-02
  0.21908E-02
  0.33979E-02
  0.17954E-02
  0.22185E-03
  0.19395E-03
 -0.17575E-02
 -0.12468E-02
  0.61913E-03
 -0.28936E-03
 -0.24368E-02
 -0.82877E-03
 -0.32050E-02
 -0.74478E-03
 -0.32002E-02
  0.20552E-03
 -0.21977E-02
  0.18315E-02
 -0.26572E-03
  0.40281E-02
  0.21283E-02
  0.60182E-02
  0.37338E-02
  0.69117E-02
  0.25451E-02
  0.48584E-02
 -0.28345E-02
 -0.32748E-03
  0.61440E-02
  0.96759E-03
 -0.56855E-02
 -0.47434E-02
 -0.19455E-03
 -0.71234E-02
 -0.91359E-02
 -0.35216E-02
 -0.11480E-01
  0.47263E-02
 -0.72399E-02
 -0.13423E-01
 -0.16820E-01
 -0.15500E-01
 -0.17468E-01
 -0.13623E-01
 -0.88482E-02
 -0.71768E-02
 -0.25947E-02
 -0.25170E-02
 -0.58576E-02
 -0.31303E-02
  0.16612E-03
 -0.14790E-02
  0.18859E-02
 -0.12301E-03
 -0.40148E-02
 -0.25373E-02
  0.11961E-02
 -0.85540E-03
  0.79483E-03
  0.23237E-02
 -0.12418E-03
 -0.27930E-02
 -0.27807E-02
 -0.88499E-03
 -0.44506E-02
 -0.44039E-02
 -0.29347E-02
 -0.48257E-02
 -0.72837E-02
  0.11204E-03
 -0.52876E-02
 -0.79026E-02
 -0.42327E-02
 -0.21157E-02
 -0.17351E-02
  0.34368E-02
  0.31278E-02
 -0.60457E-02
 -0.90963E-02
 -0.37768E-02
  0.73774E-02
 -0.97567E-03
  0.58472E-02
  0.58517E-02
  0.10825E-01
  0.70608E-02
 -0.27436E-02
  0.10951E-02
 -0.66815E-02
  0.67263E-02
  0.67991E-02
 -0.60045E-03
  0.21703E-02
  0.39404E-02
  0.62923E-02
  0.70341E-02
  0.69841E-02
  0.71927E-02
  0.72563E-02
  0.69653E-02
  0.66888E-02
  0.65501E-02
 -0.18622E-03
 -0.23368E-02
  0.21132E-02
  0.14631E-01
  0.14715E-01
  0.78382E-02
  0.76546E-02
 -0.16874E-02
  0.30507E-02
  0.83811E-02
  0.81387E-02
  0.73535E-02
  0.86579E-02
  0.83712E-02
 -0.57417E-02
 -0.68761E-02
  0.12523E-02
 -0.63322E-03
  0.31208E-02
  0.16861E-02
  0.43680E-02
  0.33694E-02
  0.82062E-03
  0.27666E-02
  0.11270E-02
  0.29561E-02
  0.25724E-02
  0.50138E-02
  0.38520E-02
  0.44147E-02
  0.28697E-02
  0.59432E-02
  0.50167E-02
  0.59744E-02
  0.41797E-02
 -0.75561E-02
 -0.64994E-02
 -0.64495E-02
 -0.48670E-02
 -0.31325E-02
 -0.16978E-02
  0.68299E-03
  0.17037E-02
 -0.14595E-02
 -0.14348E-02
  0.24603E-02
  0.48438E-03
  0.39087E-02
  0.26407E-02
  0.46351E-02
  0.29036E-02
  0.42520E-02
  0.23125E-02
  0.35453E-02
  0.14372E-02
 -0.67857E-03
 -0.19626E-02
  0.46310E-03
 -0.30076E-02
 -0.37085E-03
 -0.36353E-02
 -0.81041E-02
 -0.78842E-02
 -0.37247E-02
 -0.68578E-02
 -0.11854E-01
 -0.91430E-02
 -0.13525E-01
 -0.52490E-02
 -0.62598E-02
 -0.37609E-02
 -0.43705E-02
 -0.23844E-02
 -0.29371E-02
 -0.84855E-03
 -0.10128E-02
  0.81607E-03
  0.13287E-02
  0.27347E-02
  0.35364E-02
  0.46019E-02
  0.56273E-02
  0.62573E-02
  0.73956E-02
 -0.61031E-02
 -0.14421E-02
  0.22396E-02
  0.76759E-02
  0.88551E-02
  0.88289E-02
  0.10119E-01
  0.10225E-01
  0.11386E-01
  0.11118E-01
  0.12351E-01
  0.11927E-01
  0.13040E-01
  0.13754E-01
  0.14130E-01
  0.13508E-01
  0.14430E-01
  0.15151E-01
  0.15248E-01
  0.16046E-01
  0.15915E-01
  0.15259E-01
  0.15770E-01
  0.16392E-01
  0.16130E-01
  0.16665E-01
  0.15262E-01
  0.16331E-01
  0.16739E-01
  0.16393E-01
  0.16120E-01
  0.17106E-01
  0.16070E-01
  0.88513E-02
  0.10331E-01
 -0.57727E-02
  0.16662E-01
  0.17224E-01
  0.16368E-01
  0.16876E-01
  0.17411E-01
 -0.17559E-01
 -0.16847E-01
 -0.22257E-01
 -0.20480E-01
 -0.14642E-01
 -0.21876E-01
 -0.16723E-01
 -0.29005E-01
  0.18907E-02
 -0.16345E-02
 -0.30687E-01
 -0.40729E-01
 -0.40126E-01
 -0.52691E-01
 -0.47154E-01
 -0.58383E-01
 -0.25550E-01
  0.43280E-02
 -0.12394E-01
  0.88783E-02
  0.55886E-02
  0.61095E-02
  0.58110E-02
 -0.36043E-02
  0.13860E-01
  0.12995E-01
  0.13423E-01
  0.63138E-02
  0.76095E-02
  0.69199E-02
 -0.13273E-02
  0.92239E-03
  0.38272E-02
 -0.32482E-02
  0.81483E-02
  0.59813E-02
  0.19886E-02
  0.13486E-02
  0.37456E-02
  0.63997E-02
 -0.46176E-01
 -0.55850E-01
 -0.64772E-01
 -0.60391E-01
  0.14113E-02
  0.84259E-02
  0.88469E-02
  0.10587E-01
  0.16687E-02
  0.47565E-02
  0.16943E-01
  0.17449E-01
  0.18104E-01
  0.18104E-01
  0.17291E-01
  0.17903E-01
  0.74535E-02
  0.31743E-02
 -0.51796E-01
 -0.36306E-01
  0.54035E-02
  0.78104E-02
  0.62395E-02
  0.53880E-02
  0.51839E-02
  0.47718E-02
  0.47906E-02
  0.44753E-02
  0.16953E-02
 -0.94172E-03
 -0.50738E-02
 -0.23205E-02
 -0.63565E-02
 -0.13626E-02
  0.19121E-02
  0.34099E-02
  0.60427E-02
  0.69074E-02
  0.68883E-02
  0.88456E-02
  0.74507E-02
  0.90454E-02
  0.76771E-02
  0.94348E-02
  0.58537E-02
  0.59862E-02
  0.40028E-02
  0.40055E-02
  0.18105E-02
  0.62312E-02
  0.16918E-01
  0.17137E-01
  0.18056E-01
  0.17119E-01
  0.26907E-02
  0.88083E-02
 -0.35570E-01
  0.17211E-02
 -0.85130E-03
 -0.37811E-03
 -0.34183E-02
 -0.30100E-02
 -0.52602E-02
  0.68556E-02
  0.11813E-01
  0.76340E-02
  0.19009E-01
 -0.20031E-02
  0.12224E-01
  0.13221E-01
  0.66217E-02
 -0.24361E-02
  0.16330E-01
  0.16058E-01
  0.16794E-01
  0.15502E-01
  0.16029E-01
  0.86713E-02
  0.14591E-01
  0.14868E-01
  0.12550E-01
  0.83574E-02
  0.93021E-02
  0.10015E-01
 -0.29124E-01
  0.89073E-02
 -0.41413E-02
  0.13098E-01
 -0.64545E-01
 -0.58520E-01
 -0.49989E-01
 -0.47200E-01
  0.29911E-02
  0.25683E-02
  0.16571E-01
  0.57367E-02
 -0.36131E-01
 -0.33562E-01
 -0.40530E-01
 -0.28810E-01
  0.66430E-02
  0.13618E-01
  0.14592E-01
  0.50759E-02
  0.53480E-02
  0.60469E-02
 -0.32445E-01
 -0.22870E-01
 -0.23188E-01
 -0.16788E-01
 -0.44612E-02
  0.15247E-01
  0.48839E-02
  0.48347E-02
  0.40975E-02
 -0.10030E-02
  0.17697E-02
  0.16645E-01
  0.21814E-02
  0.65703E-02
  0.45322E-02
  0.64392E-02
  0.78386E-02
 -0.43951E-01
 -0.30864E-01
 -0.25021E-01
 -0.27793E-01
 -0.16009E-01
  0.88149E-02
  0.56769E-02
  0.71251E-02
 -0.70377E-02
  0.36078E-02
  0.66444E-05
  0.13371E-01
  0.13370E-01
  0.13331E-01
  0.11867E-01
  0.11681E-01
  0.36362E-02
  0.12537E-02
  0.59013E-02
  0.62899E-02
  0.67935E-02
  0.56094E-02
  0.79287E-02
 -0.24558E-02
  0.18762E-01
  0.19942E-01
 -0.22400E-01
  0.41449E-02
  0.40787E-02
  0.45064E-02
  0.80763E-02
 -0.10798E-01
 -0.71891E-02
  0.19297E-01
  0.20608E-01
  0.19491E-01
  0.20581E-01
  0.62052E-02
  0.13793E-01
  0.13593E-01
  0.14194E-01
  0.14006E-01
  0.14558E-01
 -0.15972E-01
  0.10394E-01
  0.11145E-01
  0.73695E-02
  0.73803E-02
 -0.36521E-01
  0.16810E-01
  0.16268E-01
  0.11374E-01
  0.11985E-01
  0.11826E-01
  0.12499E-01
  0.12401E-01
  0.12930E-01
  0.12915E-01
  0.13281E-01
  0.13268E-01
  0.13469E-01
  0.13563E-01
  0.13598E-01
  0.13764E-01
  0.13671E-01
  0.13502E-01
  0.13429E-01
  0.74787E-02
  0.15059E-01
  0.16006E-01
  0.15339E-01
  0.16631E-01
  0.17415E-01
  0.19182E-01
  0.48727E-02
  0.12551E-01
  0.70458E-02
  0.12952E-01
  0.13905E-01
  0.13717E-01
  0.13997E-01
  0.68459E-02
  0.68932E-02
  0.50014E-02
  0.10481E-01
  0.13134E-01
  0.65625E-02
  0.14798E-01
  0.89557E-02
  0.88338E-02
  0.83820E-02
 -0.94899E-02
  0.79157E-02
 -0.66641E-02
 -0.79563E-02
 -0.64844E-01
 -0.62551E-01
 -0.60727E-01
  0.20147E-01
 -0.22327E-01
 -0.14764E-01
  0.63680E-02
 -0.42778E-01
 -0.15629E-01
 -0.90945E-02
 -0.63130E-02
 -0.12464E-01
  0.12179E-01
  0.86079E-02
  0.89615E-02
  0.10003E-01
  0.43574E-02
  0.48251E-02
  0.36836E-02
 -0.12663E-01
 -0.64795E-02
 -0.88769E-02
 -0.64416E-02
 -0.88988E-02
 -0.75641E-02
  0.14413E-01
  0.14881E-01
  0.15026E-01
  0.15289E-01
  0.15439E-01
  0.15205E-01
  0.15643E-01
  0.15752E-01
  0.13763E-01
  0.67712E-02
  0.54391E-02
  0.48919E-02
  0.54233E-02
  0.11328E-01
  0.99257E-02
  0.94225E-02
  0.80651E-02
  0.37296E-02
  0.34663E-02
  0.23519E-02
  0.40671E-02
  0.13662E-01
  0.13334E-01
  0.56473E-02
  0.19791E-01
 -0.37068E-01
 -0.26121E-01
 -0.84248E-03
 -0.41875E-02
  0.20563E-02
 -0.11972E-01
  0.79645E-02
  0.75082E-02
 -0.14626E-01
  0.99322E-02
  0.50359E-02
  0.48885E-02
  0.33351E-02
  0.24122E-02
  0.97311E-03
  0.14387E-02
  0.28147E-02
  0.22577E-02
  0.34850E-02
  0.60532E-02
  0.74616E-02
  0.48673E-02
 -0.26505E-01
 -0.25482E-01
 -0.26898E-01
  0.69481E-02
  0.74056E-02
 -0.10422E-01
 -0.82048E-02
 -0.20573E-01
  0.18381E-01
  0.18380E-01
  0.18004E-01
  0.38368E-02
  0.44123E-02
 -0.60568E-02
 -0.68853E-02
 -0.45232E-02
  0.56304E-02
  0.48359E-02
  0.50108E-02
  0.24354E-02
 -0.38125E-02
 -0.97029E-03
 -0.36598E-02
 -0.12621E-02
 -0.24723E-02
  0.34034E-03
  0.23256E-02
  0.33677E-02
  0.34286E-03
  0.51351E-02
  0.31330E-02
 -0.11747E-02
 -0.37793E-02
 -0.62709E-02
  0.12862E-01
  0.12380E-01
  0.33354E-02
  0.43223E-02
 -0.41120E-02
 -0.65214E-02
 -0.40655E-02
 -0.52210E-02
  0.43574E-02
  0.16474E-01
  0.16256E-01
  0.16097E-01
  0.35227E-02
 -0.23192E-01
 -0.22006E-01
  0.44790E-02
 -0.12554E-01
  0.45011E-02
  0.43420E-02
  0.44562E-02
  0.23768E-02
  0.21703E-02
 -0.50033E-04
  0.78203E-02
  0.15260E-01
 -0.25630E-02
 -0.27536E-02
  0.14799E-02
 -0.52621E-02
  0.80691E-02
  0.12079E-01
  0.11775E-01
  0.84810E-02
 -0.14539E-01
  0.22335E-01
  0.69440E-02
  0.12952E-01
  0.58474E-02
  0.62361E-02
  0.67643E-02
  0.67255E-02
  0.13994E-01
  0.47950E-02
  0.51770E-02
 -0.39590E-02
  0.57332E-02
  0.36345E-02
  0.13299E-01
  0.13421E-01
  0.13414E-01
 -0.13888E-01
 -0.30291E-02
 -0.63504E-02
  0.45443E-02
  0.44662E-02
  0.49682E-02
  0.16306E-01
  0.15666E-01
  0.27667E-03
  0.41454E-02
 -0.19080E-01
  0.84095E-02
  0.89494E-02
  0.78073E-02
  0.13497E-01
  0.10902E-01
  0.96680E-02
  0.12691E-01
  0.14548E-01
  0.16083E-01
 -0.62001E-02
  0.19250E-02
  0.77564E-02
  0.15811E-01
 -0.58258E-01
 -0.56936E-01
 -0.54331E-01
  0.72533E-02
  0.73383E-02
  0.15666E-01
 -0.71935E-02
 -0.67937E-02
  0.46971E-02
  0.42569E-02
  0.41839E-02
  0.40231E-02
 -0.11493E-01
 -0.10278E-01
  0.43653E-02
  0.33393E-02
  0.78445E-02
  0.74828E-02
  0.89681E-02
  0.44414E-02
  0.47448E-02
  0.14643E-01
  0.15911E-01
  0.15968E-01
  0.15897E-01
  0.16038E-01
  0.16099E-01
  0.16080E-01
  0.16101E-01
  0.16057E-01
  0.70711E-02
  0.49938E-02
 -0.73927E-02
  0.42706E-02
  0.40995E-02
  0.41982E-02
  0.97135E-02
  0.43964E-02
  0.40941E-02
  0.52679E-02
  0.14080E-01
  0.26952E-02
 -0.99527E-02
  0.10877E-01
  0.26265E-02
 -0.70302E-02
 -0.76319E-02
  0.63479E-02
  0.68895E-02
  0.16087E-01
  0.16128E-01
 -0.54045E-01
 -0.10219E-01
 -0.80185E-02
 -0.71673E-02
  0.49814E-02
  0.14881E-01
 -0.10609E-01
 -0.66509E-02
 -0.63732E-02
 -0.31043E-02
 -0.35210E-02
 -0.82014E-02
 -0.47457E-01
 -0.39994E-01
  0.14740E-01
  0.14895E-01
  0.46862E-02
  0.35917E-02
  0.12231E-01
  0.46077E-02
  0.68493E-02
  0.13530E-01
  0.15903E-01
  0.54679E-02
  0.16128E-01
  0.42956E-02
  0.81800E-02
  0.10983E-01
  0.99759E-02
  0.48977E-02
  0.52183E-02
  0.57492E-02
  0.67840E-02
  0.65747E-02
  0.73109E-02
  0.69982E-02
 -0.20270E-01
  0.58032E-02
  0.60998E-02
  0.14827E-01
 -0.19657E-01
  0.77234E-02
  0.49150E-02
  0.52232E-02
  0.26411E-02
  0.14317E-01
  0.80211E-02
  0.84477E-02
  0.86732E-02
  0.89203E-02
  0.12890E-01
 -0.45418E-03
  0.12379E-01
  0.50191E-02
 -0.27527E-01
  0.15233E-01
  0.13867E-01
  0.15939E-01
  0.54484E-02
  0.58073E-02
  0.41874E-02
  0.49789E-02
  0.53796E-02
  0.52070E-02
  0.55467E-02
  0.51476E-02
  0.53500E-02
  0.57952E-02
  0.14097E-01
  0.18620E-01
  0.20194E-01
  0.17240E-01
  0.48797E-02
  0.74722E-02
  0.11622E-01
  0.12374E-01
  0.12879E-01
 -0.92726E-02
 -0.47571E-02
 -0.59866E-01
 -0.13319E-01
 -0.10902E-02
 -0.14306E-01
  0.14343E-01
  0.40059E-02
  0.49764E-02
  0.72622E-02
 -0.22618E-03
  0.78960E-02
  0.21919E-01
 -0.13324E-01
  0.14415E-01
 -0.47449E-02
  0.21545E-01
  0.21928E-01
  0.19829E-01
  0.20525E-01
  0.22355E-01
  0.20555E-01
  0.19098E-01
 -0.60825E-02
  0.10058E-01
  0.90786E-02
  0.44943E-02
  0.13373E-01
  0.66354E-02
  0.82494E-02
  0.97630E-02
  0.38805E-02
  0.16442E-02
  0.10168E-01
 -0.14800E-01
 -0.58086E-02
 -0.50727E-01
 -0.48614E-01
 -0.41482E-01
 -0.55439E-01
 -0.32737E-01
  0.37435E-02
  0.13929E-01
  0.12905E-01
  0.15597E-01
  0.16610E-01
  0.18144E-01
  0.17084E-01
 -0.14767E-01
  0.58673E-03
  0.10829E-01
  0.70199E-02
  0.46377E-02
  0.14148E-01
  0.21776E-01
  0.67675E-02
 -0.86650E-02
  0.15161E-01
  0.13885E-01
  0.15019E-01
  0.14569E-01
 -0.25747E-01
  0.47922E-02
 -0.18085E-03
 -0.30396E-01
 -0.22731E-01
  0.15828E-01
  0.15694E-01
  0.15572E-01
  0.13425E-01
 -0.61299E-02
  0.29689E-02
  0.23907E-01
  0.24665E-01
  0.15547E-02
  0.17237E-01
  0.12853E-01
 -0.25825E-01
  0.39641E-02
  0.29739E-02
  0.93115E-03
 -0.12344E-02
 -0.31453E-03
  0.33520E-02
  0.79196E-02
  0.89551E-02
  0.82339E-02
  0.96198E-02
  0.93578E-02
  0.14863E-01
  0.16512E-01
  0.18163E-01
  0.18066E-01
 -0.54917E-02
 -0.10139E-01
 -0.11546E-01
  0.52252E-02
  0.50647E-02
  0.49386E-02
  0.54637E-02
  0.15838E-01
  0.52509E-02
 -0.20997E-01
 -0.69529E-02
 -0.72584E-02
 -0.12939E-01
 -0.96900E-02
  0.14005E-01
  0.13254E-01
  0.13025E-01
  0.13172E-01
  0.12911E-01
  0.13150E-01
  0.16687E-01
 -0.14460E-02
  0.90458E-03
  0.15651E-01
  0.15609E-01
  0.80510E-02
  0.16785E-02
  0.32292E-02
  0.15746E-01
  0.10042E-01
  0.11391E-01
 -0.96922E-02
  0.17990E-02
 -0.74736E-02
 -0.15599E-01
  0.16028E-01
 -0.39996E-02
  0.62860E-02
  0.60850E-02
  0.65709E-02
  0.70914E-02
 -0.31377E-02
  0.59275E-02
  0.14178E-01
  0.14250E-01
  0.21230E-02
  0.70712E-02
  0.17161E-01
 -0.71091E-02
  0.18507E-01
  0.19928E-01
 -0.13268E-01
  0.14021E-01
  0.14953E-01
  0.15212E-01
  0.15455E-01
  0.47122E-02
  0.16206E-01
  0.48931E-02
  0.13720E-01
  0.12779E-01
  0.12780E-01
 -0.15755E-01
 -0.18448E-01
  0.71674E-03
 -0.84055E-03
  0.28730E-02
  0.57175E-02
  0.60922E-02
 -0.93707E-03
  0.77203E-02
  0.89806E-02
  0.17386E-01
  0.70413E-02
  0.68011E-02
  0.11501E-01
  0.11136E-01
  0.12216E-01
  0.12504E-01
  0.13171E-01
  0.55428E-02
  0.92033E-02
  0.63204E-02
  0.62650E-02
  0.74901E-02
  0.50312E-02
  0.46570E-02
 -0.50012E-02
 -0.62767E-02
  0.83718E-02
  0.75021E-02
  0.88699E-02
  0.96798E-02
  0.10089E-01
  0.73354E-03
  0.11683E-01
  0.87219E-02
  0.13349E-01
  0.13498E-01
  0.19823E-01
 -0.92239E-02
  0.32791E-02
  0.46103E-02
  0.16063E-01
 -0.13823E-01
  0.53030E-02
  0.56803E-02
  0.59770E-02
  0.55616E-02
  0.57243E-02
  0.51179E-02
  0.51617E-02
  0.51701E-02
 -0.62046E-01
 -0.36198E-02
  0.64232E-02
  0.16130E-01
  0.15819E-01
  0.16243E-01
  0.87942E-02
  0.50779E-02
  0.40920E-02
  0.15938E-01
  0.13647E-01
  0.92487E-02
  0.92134E-02
  0.88008E-02
 -0.21262E-02
 -0.46945E-02
 -0.88446E-02
 -0.56168E-02
  0.18872E-01
 -0.75936E-02
 -0.96808E-02
 -0.38828E-02
 -0.31844E-02
 -0.33240E-02
  0.48194E-02
  0.55228E-02
 -0.31753E-02
 -0.17738E-02
 -0.21940E-02
  0.70885E-02
  0.62446E-02
  0.74692E-02
  0.66569E-02
  0.14773E-01
  0.18183E-02
  0.73447E-02
  0.17689E-01
  0.52442E-02
  0.55058E-02
  0.15871E-02
 -0.75136E-03
 -0.13236E-02
 -0.13626E-02
 -0.20096E-02
  0.52062E-02
  0.41977E-02
  0.41669E-02
  0.38574E-02
  0.48388E-02
  0.64302E-02
  0.69439E-02
  0.82075E-02
  0.41252E-02
  0.32536E-02
 -0.23287E-01
  0.37984E-02
  0.35277E-02
  0.11731E-01
  0.73547E-02
 -0.25597E-02
 -0.26294E-04
  0.53694E-02
 -0.13189E-01
 -0.16460E-02
  0.56921E-02
  0.64380E-02
  0.26733E-03
 -0.38372E-02
 -0.18784E-03
  0.62945E-02
 -0.81946E-02
 -0.81218E-02
 -0.55276E-03
  0.43699E-02
 -0.33014E-02
  0.10157E-01
 -0.77787E-02
  0.54752E-02
 -0.36090E-02
 -0.65692E-02
 -0.39600E-02
  0.60782E-02
 -0.11482E-01
 -0.10222E-01
 -0.46044E-02
  0.78529E-02
  0.92219E-03
 -0.84892E-02
 -0.25255E-01
  0.70323E-02
  0.78825E-02
  0.11712E-01
  0.23631E-02
  0.35480E-02
 -0.92152E-02
 -0.21020E-02
  0.50801E-02
  0.40254E-02
 -0.45370E-02
  0.13164E-02
  0.83031E-02
  0.57891E-02
 -0.16307E-02
 -0.23101E-01
 -0.22654E-01
  0.41200E-02
 -0.64518E-03
  0.55141E-02
  0.44179E-02
 -0.67139E-02
  0.30714E-02
 -0.48236E-02
 -0.17881E-01
  0.71647E-02
 -0.19912E-02
  0.15753E-01
  0.10108E-02
 -0.24106E-01
  0.12642E-01
 -0.48821E-02
  0.47572E-02
  0.40564E-02
  0.88665E-02
 -0.71694E-02
  0.51222E-02
  0.16107E-01
 -0.67818E-02
  0.19118E-01
  0.88422E-02
  0.24177E-01
  0.19289E-01
  0.78441E-02
  0.17666E-01
 -0.18187E-01
 -0.20766E-01
  0.96256E-02
  0.12655E-01
  0.77527E-02
  0.16956E-01
 -0.66199E-02
  0.71430E-02
 -0.40628E-01
 -0.49677E-01
 -0.10721E-01
  0.12530E-01
 -0.62980E-02
 -0.51826E-01
 -0.96447E-02
  0.20537E-02
  0.39923E-02
 -0.47401E-01
 -0.47373E-01