# vtk DataFile Version 2.0
Unstructured Grid UFVM-ECOMOD
ASCII
DATASET UNSTRUCTURED_GRID
 POINTS         1810  float
  0.00000E+00  0.00000E+00  0.00000E+00
  0.40000E+01  0.00000E+00  0.00000E+00
  0.40000E+01  0.20000E+01  0.00000E+00
  0.00000E+00  0.20000E+01  0.00000E+00
  0.12217E+01  0.98333E+00  0.00000E+00
  0.81167E+00  0.11389E+01  0.00000E+00
  0.12217E+01  0.12944E+01  0.00000E+00
  0.10000E+00  0.00000E+00  0.00000E+00
  0.20000E+00  0.00000E+00  0.00000E+00
  0.30000E+00  0.00000E+00  0.00000E+00
  0.40000E+00  0.00000E+00  0.00000E+00
  0.50000E+00  0.00000E+00  0.00000E+00
  0.60000E+00  0.00000E+00  0.00000E+00
  0.70000E+00  0.00000E+00  0.00000E+00
  0.80000E+00  0.00000E+00  0.00000E+00
  0.90000E+00  0.00000E+00  0.00000E+00
  0.10000E+01  0.00000E+00  0.00000E+00
  0.11000E+01  0.00000E+00  0.00000E+00
  0.12000E+01  0.00000E+00  0.00000E+00
  0.13000E+01  0.00000E+00  0.00000E+00
  0.14000E+01  0.00000E+00  0.00000E+00
  0.15000E+01  0.00000E+00  0.00000E+00
  0.16000E+01  0.00000E+00  0.00000E+00
  0.17000E+01  0.00000E+00  0.00000E+00
  0.18000E+01  0.00000E+00  0.00000E+00
  0.19000E+01  0.00000E+00  0.00000E+00
  0.20000E+01  0.00000E+00  0.00000E+00
  0.21000E+01  0.00000E+00  0.00000E+00
  0.22000E+01  0.00000E+00  0.00000E+00
  0.23000E+01  0.00000E+00  0.00000E+00
  0.24000E+01  0.00000E+00  0.00000E+00
  0.25000E+01  0.00000E+00  0.00000E+00
  0.26000E+01  0.00000E+00  0.00000E+00
  0.27000E+01  0.00000E+00  0.00000E+00
  0.28000E+01  0.00000E+00  0.00000E+00
  0.29000E+01  0.00000E+00  0.00000E+00
  0.30000E+01  0.00000E+00  0.00000E+00
  0.31000E+01  0.00000E+00  0.00000E+00
  0.32000E+01  0.00000E+00  0.00000E+00
  0.33000E+01  0.00000E+00  0.00000E+00
  0.34000E+01  0.00000E+00  0.00000E+00
  0.35000E+01  0.00000E+00  0.00000E+00
  0.36000E+01  0.00000E+00  0.00000E+00
  0.37000E+01  0.00000E+00  0.00000E+00
  0.38000E+01  0.00000E+00  0.00000E+00
  0.39000E+01  0.00000E+00  0.00000E+00
  0.40000E+01  0.10000E+00  0.00000E+00
  0.40000E+01  0.20000E+00  0.00000E+00
  0.40000E+01  0.30000E+00  0.00000E+00
  0.40000E+01  0.40000E+00  0.00000E+00
  0.40000E+01  0.50000E+00  0.00000E+00
  0.40000E+01  0.60000E+00  0.00000E+00
  0.40000E+01  0.70000E+00  0.00000E+00
  0.40000E+01  0.80000E+00  0.00000E+00
  0.40000E+01  0.90000E+00  0.00000E+00
  0.40000E+01  0.10000E+01  0.00000E+00
  0.40000E+01  0.11000E+01  0.00000E+00
  0.40000E+01  0.12000E+01  0.00000E+00
  0.40000E+01  0.13000E+01  0.00000E+00
  0.40000E+01  0.14000E+01  0.00000E+00
  0.40000E+01  0.15000E+01  0.00000E+00
  0.40000E+01  0.16000E+01  0.00000E+00
  0.40000E+01  0.17000E+01  0.00000E+00
  0.40000E+01  0.18000E+01  0.00000E+00
  0.40000E+01  0.19000E+01  0.00000E+00
  0.39000E+01  0.20000E+01  0.00000E+00
  0.38000E+01  0.20000E+01  0.00000E+00
  0.37000E+01  0.20000E+01  0.00000E+00
  0.36000E+01  0.20000E+01  0.00000E+00
  0.35000E+01  0.20000E+01  0.00000E+00
  0.34000E+01  0.20000E+01  0.00000E+00
  0.33000E+01  0.20000E+01  0.00000E+00
  0.32000E+01  0.20000E+01  0.00000E+00
  0.31000E+01  0.20000E+01  0.00000E+00
  0.30000E+01  0.20000E+01  0.00000E+00
  0.29000E+01  0.20000E+01  0.00000E+00
  0.28000E+01  0.20000E+01  0.00000E+00
  0.27000E+01  0.20000E+01  0.00000E+00
  0.26000E+01  0.20000E+01  0.00000E+00
  0.25000E+01  0.20000E+01  0.00000E+00
  0.24000E+01  0.20000E+01  0.00000E+00
  0.23000E+01  0.20000E+01  0.00000E+00
  0.22000E+01  0.20000E+01  0.00000E+00
  0.21000E+01  0.20000E+01  0.00000E+00
  0.20000E+01  0.20000E+01  0.00000E+00
  0.19000E+01  0.20000E+01  0.00000E+00
  0.18000E+01  0.20000E+01  0.00000E+00
  0.17000E+01  0.20000E+01  0.00000E+00
  0.16000E+01  0.20000E+01  0.00000E+00
  0.15000E+01  0.20000E+01  0.00000E+00
  0.14000E+01  0.20000E+01  0.00000E+00
  0.13000E+01  0.20000E+01  0.00000E+00
  0.12000E+01  0.20000E+01  0.00000E+00
  0.11000E+01  0.20000E+01  0.00000E+00
  0.10000E+01  0.20000E+01  0.00000E+00
  0.90000E+00  0.20000E+01  0.00000E+00
  0.80000E+00  0.20000E+01  0.00000E+00
  0.70000E+00  0.20000E+01  0.00000E+00
  0.60000E+00  0.20000E+01  0.00000E+00
  0.50000E+00  0.20000E+01  0.00000E+00
  0.40000E+00  0.20000E+01  0.00000E+00
  0.30000E+00  0.20000E+01  0.00000E+00
  0.20000E+00  0.20000E+01  0.00000E+00
  0.10000E+00  0.20000E+01  0.00000E+00
  0.00000E+00  0.19000E+01  0.00000E+00
  0.00000E+00  0.18000E+01  0.00000E+00
  0.00000E+00  0.17000E+01  0.00000E+00
  0.00000E+00  0.16000E+01  0.00000E+00
  0.00000E+00  0.15000E+01  0.00000E+00
  0.00000E+00  0.14000E+01  0.00000E+00
  0.00000E+00  0.13000E+01  0.00000E+00
  0.00000E+00  0.12000E+01  0.00000E+00
  0.00000E+00  0.11000E+01  0.00000E+00
  0.00000E+00  0.10000E+01  0.00000E+00
  0.00000E+00  0.90000E+00  0.00000E+00
  0.00000E+00  0.80000E+00  0.00000E+00
  0.00000E+00  0.70000E+00  0.00000E+00
  0.00000E+00  0.60000E+00  0.00000E+00
  0.00000E+00  0.50000E+00  0.00000E+00
  0.00000E+00  0.40000E+00  0.00000E+00
  0.00000E+00  0.30000E+00  0.00000E+00
  0.00000E+00  0.20000E+00  0.00000E+00
  0.00000E+00  0.10000E+00  0.00000E+00
  0.11989E+01  0.99198E+00  0.00000E+00
  0.11761E+01  0.10006E+01  0.00000E+00
  0.11533E+01  0.10093E+01  0.00000E+00
  0.11306E+01  0.10179E+01  0.00000E+00
  0.11078E+01  0.10265E+01  0.00000E+00
  0.10850E+01  0.10352E+01  0.00000E+00
  0.10622E+01  0.10438E+01  0.00000E+00
  0.10394E+01  0.10525E+01  0.00000E+00
  0.10167E+01  0.10611E+01  0.00000E+00
  0.99389E+00  0.10697E+01  0.00000E+00
  0.97111E+00  0.10784E+01  0.00000E+00
  0.94833E+00  0.10870E+01  0.00000E+00
  0.92556E+00  0.10957E+01  0.00000E+00
  0.90278E+00  0.11043E+01  0.00000E+00
  0.88000E+00  0.11130E+01  0.00000E+00
  0.85722E+00  0.11216E+01  0.00000E+00
  0.83444E+00  0.11302E+01  0.00000E+00
  0.83444E+00  0.11475E+01  0.00000E+00
  0.85722E+00  0.11562E+01  0.00000E+00
  0.88000E+00  0.11648E+01  0.00000E+00
  0.90278E+00  0.11735E+01  0.00000E+00
  0.92556E+00  0.11821E+01  0.00000E+00
  0.94833E+00  0.11907E+01  0.00000E+00
  0.97111E+00  0.11994E+01  0.00000E+00
  0.99389E+00  0.12080E+01  0.00000E+00
  0.10167E+01  0.12167E+01  0.00000E+00
  0.10394E+01  0.12253E+01  0.00000E+00
  0.10622E+01  0.12340E+01  0.00000E+00
  0.10850E+01  0.12426E+01  0.00000E+00
  0.11078E+01  0.12512E+01  0.00000E+00
  0.11306E+01  0.12599E+01  0.00000E+00
  0.11533E+01  0.12685E+01  0.00000E+00
  0.11761E+01  0.12772E+01  0.00000E+00
  0.11989E+01  0.12858E+01  0.00000E+00
  0.12217E+01  0.12705E+01  0.00000E+00
  0.12217E+01  0.12466E+01  0.00000E+00
  0.12217E+01  0.12227E+01  0.00000E+00
  0.12217E+01  0.11987E+01  0.00000E+00
  0.12217E+01  0.11748E+01  0.00000E+00
  0.12217E+01  0.11508E+01  0.00000E+00
  0.12217E+01  0.11269E+01  0.00000E+00
  0.12217E+01  0.11030E+01  0.00000E+00
  0.12217E+01  0.10791E+01  0.00000E+00
  0.12217E+01  0.10551E+01  0.00000E+00
  0.12217E+01  0.10312E+01  0.00000E+00
  0.12217E+01  0.10073E+01  0.00000E+00
  0.12429E+01  0.10188E+01  0.00000E+00
  0.12399E+01  0.11882E+01  0.00000E+00
  0.21377E+01  0.78680E-01  0.00000E+00
  0.21538E+01  0.19174E+01  0.00000E+00
  0.83774E+00  0.11061E+01  0.00000E+00
  0.97541E+00  0.10554E+01  0.00000E+00
  0.11166E+01  0.10045E+01  0.00000E+00
  0.29463E+01  0.19156E+01  0.00000E+00
  0.26515E+01  0.81480E-01  0.00000E+00
  0.25477E+01  0.19110E+01  0.00000E+00
  0.30502E+01  0.68680E-01  0.00000E+00
  0.83912E+00  0.11750E+01  0.00000E+00
  0.95224E+00  0.12148E+01  0.00000E+00
  0.10661E+01  0.12580E+01  0.00000E+00
  0.11804E+01  0.13002E+01  0.00000E+00
  0.39119E+01  0.10505E+01  0.00000E+00
  0.17555E+01  0.84130E-01  0.00000E+00
  0.64649E+00  0.99150E-01  0.00000E+00
  0.17446E+01  0.19250E+01  0.00000E+00
  0.86600E-01  0.65000E+00  0.00000E+00
  0.14551E+01  0.78430E-01  0.00000E+00
  0.96058E+00  0.81690E-01  0.00000E+00
  0.33501E+01  0.19134E+01  0.00000E+00
  0.39162E+01  0.63967E+00  0.00000E+00
  0.82470E-01  0.14561E+01  0.00000E+00
  0.55009E+00  0.19215E+01  0.00000E+00
  0.85020E-01  0.95314E+00  0.00000E+00
  0.39167E+01  0.13623E+01  0.00000E+00
  0.33616E+01  0.95540E-01  0.00000E+00
  0.90682E+00  0.10774E+01  0.00000E+00
  0.10433E+01  0.10284E+01  0.00000E+00
  0.11799E+01  0.97718E+00  0.00000E+00
  0.12429E+01  0.10931E+01  0.00000E+00
  0.12436E+01  0.12583E+01  0.00000E+00
  0.85035E+00  0.19198E+01  0.00000E+00
  0.14457E+01  0.19288E+01  0.00000E+00
  0.11516E+01  0.19130E+01  0.00000E+00
  0.36450E+01  0.85340E-01  0.00000E+00
  0.84610E-01  0.34945E+00  0.00000E+00
  0.36500E+01  0.19134E+01  0.00000E+00
  0.35776E+00  0.89100E-01  0.00000E+00
  0.39086E+01  0.16476E+01  0.00000E+00
  0.39134E+01  0.35000E+00  0.00000E+00
  0.83900E-01  0.11460E+01  0.00000E+00
  0.35715E+00  0.19076E+01  0.00000E+00
  0.83410E-01  0.16549E+01  0.00000E+00
  0.12495E+01  0.81910E-01  0.00000E+00
  0.19505E+01  0.76550E-01  0.00000E+00
  0.23503E+01  0.82860E-01  0.00000E+00
  0.19504E+01  0.19252E+01  0.00000E+00
  0.23461E+01  0.19181E+01  0.00000E+00
  0.28427E+01  0.83720E-01  0.00000E+00
  0.31542E+01  0.19172E+01  0.00000E+00
  0.27508E+01  0.19148E+01  0.00000E+00
  0.39150E+01  0.84994E+00  0.00000E+00
  0.88020E+00  0.11939E+01  0.00000E+00
  0.99745E+00  0.12340E+01  0.00000E+00
  0.12424E+01  0.11389E+01  0.00000E+00
  0.11119E+01  0.12747E+01  0.00000E+00
  0.78910E-01  0.18478E+01  0.00000E+00
  0.38489E+01  0.73890E-01  0.00000E+00
  0.86600E-01  0.15000E+00  0.00000E+00
  0.38461E+01  0.19156E+01  0.00000E+00
  0.83750E-01  0.10487E+01  0.00000E+00
  0.16314E+00  0.10008E+01  0.00000E+00
  0.16591E+00  0.91287E+00  0.00000E+00
  0.23730E+00  0.95594E+00  0.00000E+00
  0.24013E+00  0.87512E+00  0.00000E+00
  0.30661E+00  0.91623E+00  0.00000E+00
  0.30296E+00  0.99591E+00  0.00000E+00
  0.30938E+00  0.83944E+00  0.00000E+00
  0.37444E+00  0.87856E+00  0.00000E+00
  0.37563E+00  0.80503E+00  0.00000E+00
  0.43612E+00  0.84332E+00  0.00000E+00
  0.43924E+00  0.77347E+00  0.00000E+00
  0.49710E+00  0.80859E+00  0.00000E+00
  0.50063E+00  0.74182E+00  0.00000E+00
  0.55658E+00  0.77549E+00  0.00000E+00
[...]
 POINT_DATA         1810
  
 SCALARS WL      float 1
 LOOKUP_TABLE default
  0.12178E-01
  0.16959E-02
 -0.99452E-03
  0.16419E-01
 -0.36309E-01
  0.26819E-01
 -0.10877E-01
  0.12213E-01
  0.12329E-01
  0.12495E-01
  0.12690E-01
  0.12847E-01
  0.12971E-01
  0.12931E-01
  0.12577E-01
  0.11952E-01
  0.11046E-01
  0.99750E-02
  0.87759E-02
  0.76535E-02
  0.66783E-02
  0.59877E-02
  0.55655E-02
  0.54566E-02
  0.56040E-02
  0.60105E-02
  0.66689E-02
  0.74560E-02
  0.83066E-02
  0.90076E-02
  0.94373E-02
  0.94275E-02
  0.89703E-02
  0.81396E-02
  0.70842E-02
  0.58563E-02
  0.47067E-02
  0.37877E-02
  0.31903E-02
  0.30564E-02
  0.32158E-02
  0.36420E-02
  0.40181E-02
  0.41802E-02
  0.37677E-02
  0.27164E-02
  0.00000E+00
  0.00000E+00
  0.00000E+00
  0.00000E+00
  0.00000E+00
  0.00000E+00
  0.00000E+00
  0.00000E+00
  0.00000E+00
  0.00000E+00
  0.00000E+00
  0.00000E+00
  0.00000E+00
  0.00000E+00
  0.00000E+00
  0.00000E+00
  0.00000E+00
  0.00000E+00
  0.00000E+00
 -0.10667E-02
 -0.83816E-03
  0.21212E-03
  0.20243E-02
  0.42820E-02
  0.62022E-02
  0.76107E-02
  0.85035E-02
  0.86784E-02
  0.81414E-02
  0.71341E-02
  0.59909E-02
  0.50178E-02
  0.43967E-02
  0.42379E-02
  0.45759E-02
  0.49250E-02
  0.52818E-02
  0.55800E-02
  0.57958E-02
  0.57465E-02
  0.54694E-02
  0.50087E-02
  0.44496E-02
  0.39602E-02
  0.38548E-02
  0.42545E-02
  0.50683E-02
  0.63319E-02
  0.77616E-02
  0.92642E-02
  0.10668E-01
  0.11883E-01
  0.12909E-01
  0.13782E-01
  0.14566E-01
  0.15236E-01
  0.15817E-01
  0.16244E-01
  0.16451E-01
  0.16486E-01
  0.16527E-01
  0.16565E-01
  0.16580E-01
  0.16551E-01
  0.16444E-01
  0.16266E-01
  0.15998E-01
  0.15650E-01
  0.15237E-01
  0.14775E-01
  0.14275E-01
  0.13788E-01
  0.13339E-01
  0.12953E-01
  0.12625E-01
  0.12375E-01
  0.12223E-01
 -0.16930E-01
 -0.10635E-01
 -0.59747E-02
 -0.31377E-02
  0.80478E-03
  0.37096E-02
  0.46806E-02
  0.68467E-02
  0.87261E-02
  0.10455E-01
  0.11747E-01
  0.13582E-01
  0.14967E-01
  0.17205E-01
  0.18758E-01
  0.20744E-01
  0.23985E-01
  0.25671E-01
  0.22484E-01
  0.21226E-01
  0.19021E-01
  0.18134E-01
  0.16110E-01
  0.15305E-01
  0.13796E-01
  0.12698E-01
  0.11580E-01
  0.10266E-01
  0.89484E-02
  0.76751E-02
  0.60955E-02
  0.39032E-02
  0.15463E-02
 -0.17450E-02
 -0.14846E-01
 -0.15830E-01
 -0.18623E-01
 -0.22721E-01
 -0.28414E-01
 -0.35617E-01
 -0.43043E-01
 -0.49367E-01
 -0.53594E-01
 -0.54680E-01
 -0.52594E-01
 -0.49233E-01
 -0.51377E-01
 -0.25450E-01
  0.77417E-02
  0.54968E-02
  0.21685E-01
  0.11152E-01
 -0.16239E-02
  0.76335E-02
  0.85821E-02
  0.42184E-02
  0.42198E-02
  0.22974E-01
  0.15735E-01
  0.96051E-02
  0.34062E-03
  0.20456E-04
  0.54828E-02
  0.12965E-01
  0.51349E-02
  0.14010E-01
  0.62085E-02
  0.11386E-01
  0.68972E-02
  0.41693E-02
  0.16497E-01
  0.13427E-01
  0.15431E-01
 -0.27874E-02
  0.31554E-02
  0.15867E-01
  0.57545E-02
 -0.12748E-01
 -0.52514E-01
 -0.14790E-01
  0.10084E-01
  0.37226E-02
  0.55793E-02
  0.42092E-02
  0.12779E-01
  0.84771E-03
  0.12629E-01
 -0.20688E-02
  0.33256E-02
  0.16097E-01
  0.14907E-01
  0.16438E-01
  0.81190E-02
  0.62914E-02
  0.92526E-02
  0.57832E-02
  0.47597E-02
  0.65769E-02
  0.86423E-02
  0.54920E-02
  0.30196E-02
  0.19882E-01
  0.13149E-01
 -0.40363E-01
  0.70798E-02
  0.16357E-01
  0.33821E-02
  0.12312E-01
 -0.10868E-02
  0.15798E-01
  0.15625E-01
  0.15266E-01
  0.15526E-01
  0.15172E-01
  0.15467E-01
  0.15803E-01
  0.15098E-01
  0.15409E-01
  0.15009E-01
  0.15293E-01
  0.14876E-01
  0.15084E-01
  0.14650E-01
  0.14760E-01
  0.14294E-01
  0.14276E-01
  0.13832E-01
  0.13639E-01
  0.15575E-01
  0.13277E-01
  0.12880E-01
  0.13335E-01
  0.12357E-01
  0.12004E-01
  0.11243E-01
  0.11044E-01
  0.10086E-01
  0.10050E-01
  0.89057E-02
  0.88930E-02
  0.75396E-02
  0.77688E-02
  0.62442E-02
  0.67464E-02
  0.51682E-02
  0.13892E-01
  0.12916E-01
  0.58924E-02
  0.42520E-02
  0.31404E-02
  0.23635E-02
  0.36687E-02
  0.20574E-02
  0.38202E-03
  0.47188E-03
 -0.15788E-02
 -0.90875E-03
  0.10183E-02
  0.18829E-03
 -0.19522E-02
 -0.18794E-03
 -0.24241E-02
  0.17482E-03
 -0.19608E-02
  0.14960E-02
 -0.34927E-03
  0.35494E-02
  0.21764E-02
  0.60232E-02
  0.49073E-02
  0.81192E-02
  0.64590E-02
  0.87099E-02
  0.39801E-02
  0.56372E-02
 -0.26316E-02
 -0.41624E-03
  0.55423E-02
 -0.85231E-03
 -0.65066E-02
 -0.76611E-02
 -0.40966E-02
 -0.11871E-01
 -0.10600E-01
 -0.84955E-02
 -0.15392E-01
  0.61261E-02
 -0.95292E-02
 -0.12709E-01
 -0.17862E-01
 -0.12255E-01
 -0.15955E-01
 -0.99355E-02
 -0.52158E-02
 -0.45351E-02
 -0.63723E-03
 -0.13361E-02
 -0.46883E-02
 -0.29070E-02
  0.64458E-03
 -0.16347E-02
  0.20150E-02
 -0.23770E-03
 -0.45006E-02
 -0.25770E-02
  0.11041E-02
 -0.11089E-02
  0.13709E-02
  0.17966E-02
 -0.10961E-02
 -0.31986E-02
 -0.41003E-02
 -0.25949E-02
 -0.65234E-02
 -0.40069E-02
 -0.50277E-02
 -0.62166E-02
 -0.88984E-02
 -0.34783E-02
 -0.61855E-02
 -0.82941E-02
 -0.44394E-02
 -0.21586E-02
 -0.24521E-02
  0.18200E-02
  0.28677E-02
 -0.56463E-02
 -0.82576E-02
 -0.37538E-03
  0.74780E-02
 -0.10321E-02
  0.49814E-02
  0.54182E-02
  0.10995E-01
  0.73113E-02
 -0.25512E-02
  0.10658E-02
 -0.57323E-02
  0.59776E-02
  0.62849E-02
 -0.10365E-02
  0.16413E-02
  0.40581E-02
  0.60615E-02
  0.60410E-02
  0.62104E-02
  0.64049E-02
  0.69037E-02
  0.68792E-02
  0.60911E-02
  0.61015E-02
 -0.12946E-02
 -0.30314E-02
  0.11761E-02
  0.14820E-01
  0.14669E-01
  0.76012E-02
  0.76607E-02
 -0.16439E-02
  0.34099E-02
  0.82716E-02
  0.82457E-02
  0.67906E-02
  0.87264E-02
  0.86028E-02
 -0.60134E-02
 -0.68644E-02
 -0.27272E-03
 -0.21712E-02
  0.21045E-02
  0.77730E-03
  0.38281E-02
  0.28795E-02
  0.42716E-03
  0.24912E-02
  0.12704E-02
  0.27940E-02
  0.27771E-02
  0.47265E-02
  0.34903E-02
  0.42289E-02
  0.34779E-02
  0.57681E-02
  0.42797E-02
  0.53616E-02
  0.40113E-02
 -0.68407E-02
 -0.73657E-02
 -0.64787E-02
 -0.61501E-02
 -0.36152E-02
 -0.29937E-02
  0.25397E-03
  0.74787E-03
 -0.33788E-02
 -0.15118E-02
  0.24163E-02
  0.38969E-03
  0.41706E-02
  0.25805E-02
  0.52796E-02
  0.34018E-02
  0.50640E-02
  0.31503E-02
  0.43695E-02
  0.23111E-02
  0.39775E-03
 -0.92194E-03
  0.10796E-02
 -0.24960E-02
 -0.23947E-03
 -0.39043E-02
 -0.78721E-02
 -0.89173E-02
 -0.46970E-02
 -0.86875E-02
 -0.14547E-01
 -0.12488E-01
 -0.18986E-01
 -0.73521E-02
 -0.93538E-02
 -0.56733E-02
 -0.66296E-02
 -0.38389E-02
 -0.43190E-02
 -0.18895E-02
 -0.17719E-02
  0.32001E-05
  0.73573E-03
  0.19980E-02
  0.29329E-02
  0.38606E-02
  0.49729E-02
  0.55111E-02
  0.67261E-02
 -0.97320E-02
 -0.27083E-02
  0.13767E-02
  0.69696E-02
  0.82326E-02
  0.82331E-02
  0.95788E-02
  0.96949E-02
  0.10926E-01
  0.10673E-01
  0.11997E-01
  0.11594E-01
  0.12800E-01
  0.13499E-01
  0.13982E-01
  0.13377E-01
  0.14381E-01
  0.15091E-01
  0.15274E-01
  0.16065E-01
  0.16009E-01
  0.15357E-01
  0.15923E-01
  0.16544E-01
  0.16327E-01
  0.16865E-01
  0.15416E-01
  0.16561E-01
  0.16971E-01
  0.16640E-01
  0.16367E-01
  0.17256E-01
  0.16009E-01
  0.83127E-02
  0.98326E-02
 -0.39837E-02
  0.16910E-01
  0.17455E-01
  0.16614E-01
  0.17125E-01
  0.17650E-01
 -0.21698E-01
 -0.24472E-01
 -0.27725E-01
 -0.27991E-01
 -0.22897E-01
 -0.26270E-01
 -0.21216E-01
 -0.28863E-01
  0.46324E-03
 -0.33625E-02
 -0.30640E-01
 -0.37080E-01
 -0.36885E-01
 -0.47699E-01
 -0.40789E-01
 -0.51854E-01
 -0.31113E-01
  0.37702E-02
 -0.11850E-01
  0.82602E-02
  0.62903E-02
  0.57787E-02
  0.56805E-02
 -0.23777E-02
  0.13824E-01
  0.12879E-01
  0.13399E-01
  0.66257E-02
  0.79371E-02
  0.73313E-02
 -0.27369E-02
 -0.67632E-04
  0.34468E-02
 -0.41977E-02
  0.85638E-02
  0.59501E-02
  0.23729E-02
  0.13203E-02
  0.32760E-02
  0.59236E-02
 -0.37840E-01
 -0.48567E-01
 -0.62056E-01
 -0.57440E-01
  0.23150E-02
  0.96670E-02
  0.83802E-02
  0.10141E-01
  0.13097E-02
  0.56452E-02
  0.17192E-01
  0.17692E-01
  0.18323E-01
  0.18332E-01
  0.17539E-01
  0.18137E-01
  0.79782E-02
  0.37190E-02
 -0.48551E-01
 -0.33132E-01
  0.45833E-02
  0.70994E-02
  0.60608E-02
  0.54926E-02
  0.53318E-02
  0.51014E-02
  0.51634E-02
  0.49765E-02
  0.48297E-03
 -0.14660E-02
 -0.56642E-02
 -0.13699E-02
 -0.48632E-02
  0.56890E-03
  0.28978E-02
  0.44297E-02
  0.49893E-02
  0.61018E-02
  0.65486E-02
  0.89721E-02
  0.75304E-02
  0.91608E-02
  0.77418E-02
  0.95440E-02
  0.58723E-02
  0.59838E-02
  0.39423E-02
  0.39154E-02
  0.16468E-02
  0.62132E-02
  0.17168E-01
  0.17380E-01
  0.18283E-01
  0.17353E-01
  0.24090E-02
  0.91325E-02
 -0.30009E-01
  0.15182E-02
 -0.11521E-02
 -0.60855E-03
 -0.38085E-02
 -0.40675E-02
 -0.63667E-02
  0.69657E-02
  0.11361E-01
  0.68712E-02
  0.19202E-01
 -0.17031E-02
  0.11795E-01
  0.12817E-01
  0.68599E-02
 -0.32833E-02
  0.16574E-01
  0.16292E-01
  0.17018E-01
  0.15723E-01
  0.16242E-01
  0.89335E-02
  0.14793E-01
  0.15060E-01
  0.12442E-01
  0.80352E-02
  0.96983E-02
  0.10289E-01
 -0.22313E-01
  0.83197E-02
 -0.40850E-02
  0.13082E-01
 -0.66304E-01
 -0.60516E-01
 -0.46376E-01
 -0.47072E-01
  0.32626E-02
  0.24935E-02
  0.16812E-01
  0.57976E-02
 -0.32678E-01
 -0.32640E-01
 -0.42361E-01
 -0.29397E-01
  0.54872E-02
  0.13223E-01
  0.14240E-01
  0.52858E-02
  0.55127E-02
  0.64249E-02
 -0.34723E-01
 -0.23864E-01
 -0.24901E-01
 -0.17674E-01
 -0.19997E-02
  0.15485E-01
  0.51732E-02
  0.52554E-02
  0.40734E-02
 -0.13529E-02
  0.15402E-02
  0.16894E-01
  0.17273E-02
  0.67639E-02
  0.53636E-02
  0.68833E-02
  0.80811E-02
 -0.40713E-01
 -0.27784E-01
 -0.27490E-01
 -0.30635E-01
 -0.18053E-01
  0.84295E-02
  0.58003E-02
  0.67669E-02
 -0.91374E-02
  0.29046E-02
  0.82443E-03
  0.13546E-01
  0.13534E-01
  0.13520E-01
  0.12007E-01
  0.11805E-01
  0.40529E-02
  0.12325E-02
  0.45415E-02
  0.67960E-02
  0.74268E-02
  0.62086E-02
  0.85757E-02
 -0.27322E-02
  0.18942E-01
  0.20085E-01
 -0.19947E-01
  0.46100E-02
  0.46468E-02
  0.51284E-02
  0.83998E-02
 -0.82810E-02
 -0.60160E-02
  0.19425E-01
  0.20686E-01
  0.19560E-01
  0.20587E-01
  0.69343E-02
  0.13846E-01
  0.13657E-01
  0.14319E-01
  0.14140E-01
  0.14747E-01
 -0.16298E-01
  0.10733E-01
  0.11350E-01
  0.76011E-02
  0.78263E-02
 -0.30845E-01
  0.17017E-01
  0.16514E-01
  0.11615E-01
  0.12081E-01
  0.11925E-01
  0.12478E-01
  0.12419E-01
  0.12822E-01
  0.12868E-01
  0.13105E-01
  0.13018E-01
  0.13163E-01
  0.13339E-01
  0.13265E-01
  0.13514E-01
  0.13342E-01
  0.13104E-01
  0.13045E-01
  0.77265E-02
  0.14708E-01
  0.15710E-01
  0.15047E-01
  0.16400E-01
  0.17172E-01
  0.19187E-01
  0.54906E-02
  0.12142E-01
  0.63206E-02
  0.12953E-01
  0.13651E-01
  0.13417E-01
  0.13763E-01
  0.68157E-02
  0.66505E-02
  0.48447E-02
  0.10629E-01
  0.13284E-01
  0.55510E-02
  0.14725E-01
  0.90824E-02
  0.91589E-02
  0.88209E-02
 -0.16836E-01
  0.72291E-02
 -0.68668E-02
 -0.78126E-02
 -0.65273E-01
 -0.65777E-01
 -0.61979E-01
  0.20313E-01
 -0.18995E-01
 -0.15007E-01
  0.66837E-02
 -0.47353E-01
 -0.16744E-01
 -0.73783E-02
 -0.40532E-02
 -0.13198E-01
  0.12276E-01
  0.83001E-02
  0.84185E-02
  0.95700E-02
  0.50027E-02
  0.55330E-02
  0.42656E-02
 -0.15799E-01
 -0.12103E-01
 -0.11561E-01
 -0.97999E-02
 -0.94810E-02
 -0.84032E-02
  0.14613E-01
  0.15125E-01
  0.15261E-01
  0.15562E-01
  0.15702E-01
  0.15490E-01
  0.15926E-01
  0.16021E-01
  0.13515E-01
  0.66381E-02
  0.55403E-02
  0.47616E-02
  0.51166E-02
  0.11434E-01
  0.10000E-01
  0.94751E-02
  0.80796E-02
  0.39583E-02
  0.34018E-02
  0.19817E-02
  0.45850E-02
  0.13879E-01
  0.13548E-01
  0.27075E-02
  0.19727E-01
 -0.33893E-01
 -0.23068E-01
 -0.12170E-02
 -0.47330E-02
  0.18173E-02
 -0.14152E-01
  0.83247E-02
  0.80905E-02
 -0.10499E-01
  0.10122E-01
  0.53052E-02
  0.53555E-02
  0.29943E-02
  0.18236E-02
  0.30354E-03
  0.62899E-03
  0.20595E-02
  0.13740E-02
  0.26136E-02
  0.63435E-02
  0.75325E-02
  0.52686E-02
 -0.30727E-01
 -0.28945E-01
 -0.27057E-01
  0.72815E-02
  0.77634E-02
 -0.84295E-02
 -0.73149E-02
 -0.22367E-01
  0.18547E-01
  0.18316E-01
  0.18015E-01
  0.34553E-02
  0.40436E-02
 -0.66981E-02
 -0.63486E-02
 -0.44273E-02
  0.59171E-02
  0.44150E-02
  0.58087E-02
  0.35692E-02
 -0.39122E-02
 -0.10318E-02
 -0.29259E-02
 -0.59566E-03
 -0.20776E-02
  0.13584E-02
  0.32215E-02
  0.44720E-02
  0.19177E-02
  0.59784E-02
  0.44522E-02
  0.97457E-03
 -0.16777E-02
 -0.38297E-02
  0.12456E-01
  0.12441E-01
  0.24100E-02
  0.33888E-02
 -0.43886E-02
 -0.58443E-02
 -0.37063E-02
 -0.66403E-02
  0.35711E-02
  0.16711E-01
  0.16470E-01
  0.16301E-01
  0.33968E-02
 -0.24244E-01
 -0.20312E-01
  0.46976E-02
 -0.13569E-01
  0.43872E-02
  0.42088E-02
  0.44728E-02
  0.25527E-02
  0.27059E-02
  0.17324E-03
  0.82176E-02
  0.15487E-01
 -0.23006E-02
 -0.44617E-03
  0.26841E-02
 -0.41829E-02
  0.74238E-02
  0.11876E-01
  0.11579E-01
  0.85205E-02
 -0.11873E-01
  0.22356E-01
  0.61596E-02
  0.12971E-01
  0.56256E-02
  0.58787E-02
  0.62113E-02
  0.62888E-02
  0.13826E-01
  0.54614E-02
  0.59439E-02
 -0.45213E-02
  0.56044E-02
  0.42779E-02
  0.12983E-01
  0.12969E-01
  0.12937E-01
 -0.11305E-01
 -0.83284E-03
 -0.90367E-02
  0.36118E-02
  0.41316E-02
  0.47211E-02
  0.16527E-01
  0.15911E-01
  0.12615E-03
  0.40857E-02
 -0.12867E-01
  0.89147E-02
  0.92970E-02
  0.83455E-02
  0.13193E-01
  0.11069E-01
  0.10153E-01
  0.12826E-01
  0.14721E-01
  0.16312E-01
 -0.68118E-02
  0.30443E-02
  0.77258E-02
  0.15590E-01
 -0.61459E-01
 -0.61781E-01
 -0.55186E-01
  0.66910E-02
  0.68857E-02
  0.15890E-01
 -0.73087E-02
 -0.66244E-02
  0.45192E-02
  0.38920E-02
  0.36771E-02
  0.33597E-02
 -0.11505E-01
 -0.12393E-01
  0.49861E-02
  0.38749E-02
  0.73340E-02
  0.74710E-02
  0.90008E-02
  0.49015E-02
  0.54424E-02
  0.14354E-01
  0.16182E-01
  0.16222E-01
  0.16153E-01
  0.16274E-01
  0.16320E-01
  0.16279E-01
  0.16320E-01
  0.16236E-01
  0.72828E-02
  0.56985E-02
 -0.58170E-02
  0.39745E-02
  0.32203E-02
  0.31972E-02
  0.92890E-02
  0.47662E-02
  0.45505E-02
  0.43365E-02
  0.13890E-01
  0.32290E-02
 -0.86090E-02
  0.10457E-01
  0.31864E-02
 -0.29234E-02
 -0.87352E-02
  0.58722E-02
  0.66979E-02
  0.16270E-01
  0.16309E-01
 -0.58524E-01
 -0.10300E-01
 -0.69852E-02
 -0.14183E-01
  0.40473E-02
  0.15117E-01
 -0.80099E-02
 -0.54712E-02
 -0.46865E-02
 -0.23618E-02
 -0.31869E-02
 -0.90359E-02
 -0.45121E-01
 -0.37487E-01
  0.14841E-01
  0.15055E-01
  0.53087E-02
  0.41555E-02
  0.12426E-01
  0.50030E-02
  0.73943E-02
  0.13302E-01
  0.16187E-01
  0.54735E-02
  0.16321E-01
  0.49991E-02
  0.84362E-02
  0.11131E-01
  0.10085E-01
  0.55254E-02
  0.52809E-02
  0.63356E-02
  0.74335E-02
  0.71206E-02
  0.76986E-02
  0.74071E-02
 -0.18383E-01
  0.50927E-02
  0.49215E-02
  0.14599E-01
 -0.22405E-01
  0.82968E-02
  0.47567E-02
  0.51991E-02
  0.24135E-02
  0.14153E-01
  0.76095E-02
  0.80550E-02
  0.83773E-02
  0.86959E-02
  0.13089E-01
 -0.35877E-03
  0.12485E-01
  0.42566E-02
 -0.25878E-01
  0.15468E-01
  0.14005E-01
  0.16083E-01
  0.62201E-02
  0.66598E-02
  0.49637E-02
  0.58480E-02
  0.63147E-02
  0.60699E-02
  0.64127E-02
  0.59844E-02
  0.60464E-02
  0.64721E-02
  0.14317E-01
  0.18486E-01
  0.20059E-01
  0.17090E-01
  0.50827E-02
  0.71349E-02
  0.11893E-01
  0.12469E-01
  0.12759E-01
 -0.10453E-01
 -0.37820E-02
 -0.58670E-01
 -0.14517E-01
 -0.12551E-02
 -0.10406E-01
  0.14557E-01
  0.36538E-02
  0.57673E-02
  0.74660E-02
  0.57313E-03
  0.83018E-02
  0.21847E-01
 -0.12180E-01
  0.14286E-01
 -0.68466E-02
  0.21647E-01
  0.22072E-01
  0.20021E-01
  0.20718E-01
  0.22542E-01
  0.20763E-01
  0.19309E-01
 -0.63447E-02
  0.10273E-01
  0.92991E-02
  0.42949E-02
  0.12842E-01
  0.64975E-02
  0.80135E-02
  0.94266E-02
  0.40560E-02
  0.20639E-02
  0.97760E-02
 -0.16162E-01
 -0.62638E-02
 -0.54781E-01
 -0.54955E-01
 -0.47717E-01
 -0.60779E-01
 -0.36331E-01
  0.29751E-02
  0.13544E-01
  0.12513E-01
  0.15253E-01
  0.16311E-01
  0.17892E-01
  0.16784E-01
 -0.12319E-01
 -0.38679E-03
  0.10918E-01
  0.64497E-02
  0.41426E-02
  0.13774E-01
  0.21636E-01
  0.67441E-02
 -0.14077E-01
  0.15342E-01
  0.14046E-01
  0.15020E-01
  0.14521E-01
 -0.25021E-01
  0.46687E-02
 -0.54506E-03
 -0.27324E-01
 -0.19447E-01
  0.15926E-01
  0.15810E-01
  0.15704E-01
  0.12931E-01
 -0.46791E-02
  0.27590E-02
  0.23960E-01
  0.24613E-01
  0.16471E-02
  0.17436E-01
  0.12482E-01
 -0.28651E-01
  0.44351E-02
  0.35269E-02
  0.51594E-03
 -0.21464E-02
 -0.13150E-02
  0.38980E-02
  0.74446E-02
  0.86312E-02
  0.87043E-02
  0.96815E-02
  0.79994E-02
  0.15046E-01
  0.16713E-01
  0.18377E-01
  0.18282E-01
 -0.49917E-02
 -0.97220E-02
 -0.10416E-01
  0.56993E-02
  0.53838E-02
  0.54620E-02
  0.55586E-02
  0.16030E-01
  0.59368E-02
 -0.18349E-01
 -0.52947E-02
 -0.45561E-02
 -0.87816E-02
 -0.49432E-02
  0.14208E-01
  0.12746E-01
  0.12552E-01
  0.12724E-01
  0.12534E-01
  0.12782E-01
  0.16778E-01
 -0.16099E-02
  0.83742E-03
  0.15906E-01
  0.15840E-01
  0.81087E-02
  0.17001E-02
  0.32520E-02
  0.15835E-01
  0.10202E-01
  0.11573E-01
 -0.83680E-02
  0.87108E-03
 -0.60481E-02
 -0.14640E-01
  0.16176E-01
 -0.44832E-02
  0.70014E-02
  0.69940E-02
  0.71830E-02
  0.79330E-02
 -0.40654E-02
  0.61072E-02
  0.13997E-01
  0.14152E-01
  0.25874E-02
  0.56770E-02
  0.17098E-01
 -0.77265E-02
  0.18246E-01
  0.19727E-01
 -0.11128E-01
  0.14208E-01
  0.15238E-01
  0.15525E-01
  0.15768E-01
  0.38299E-02
  0.16450E-01
  0.57261E-02
  0.13578E-01
  0.12372E-01
  0.12519E-01
 -0.15361E-01
 -0.15874E-01
  0.13028E-02
 -0.60604E-03
  0.38911E-02
  0.57694E-02
  0.59677E-02
 -0.13560E-02
  0.70622E-02
  0.84990E-02
  0.17086E-01
  0.75384E-02
  0.72781E-02
  0.11350E-01
  0.10925E-01
  0.12144E-01
  0.12482E-01
  0.13225E-01
  0.56183E-02
  0.79817E-02
  0.62796E-02
  0.60614E-02
  0.77549E-02
  0.57015E-02
  0.51429E-02
 -0.50814E-02
 -0.59451E-02
  0.92571E-02
  0.83635E-02
  0.96380E-02
  0.10422E-01
  0.10675E-01
  0.80305E-03
  0.11816E-01
  0.87827E-02
  0.13250E-01
  0.13486E-01
  0.20045E-01
 -0.90151E-02
 -0.80662E-03
  0.45629E-02
  0.16310E-01
 -0.15010E-01
  0.50555E-02
  0.44442E-02
  0.44911E-02
  0.39561E-02
  0.41868E-02
  0.35875E-02
  0.37779E-02
  0.40519E-02
 -0.58950E-01
 -0.33532E-02
  0.72616E-02
  0.16395E-01
  0.16122E-01
  0.16429E-01
  0.85789E-02
  0.46410E-02
  0.39799E-02
  0.16073E-01
  0.13510E-01
  0.94667E-02
  0.93256E-02
  0.92389E-02
 -0.92984E-03
 -0.33638E-02
 -0.92859E-02
 -0.76570E-02
  0.19081E-01
 -0.56504E-02
 -0.10204E-01
 -0.44633E-02
 -0.29318E-02
 -0.30710E-02
  0.51264E-02
  0.51122E-02
 -0.37005E-02
 -0.10843E-02
 -0.15925E-02
  0.66131E-02
  0.58636E-02
  0.71385E-02
  0.64387E-02
  0.14956E-01
  0.33455E-02
  0.75618E-02
  0.17905E-01
  0.59834E-02
  0.56531E-02
  0.15244E-02
 -0.38645E-03
 -0.10857E-02
 -0.12065E-02
 -0.17357E-02
  0.52387E-02
  0.30949E-02
  0.34996E-02
  0.52073E-02
  0.59753E-02
  0.76334E-02
  0.81347E-02
  0.84352E-02
  0.42878E-02
  0.29764E-02
 -0.22143E-01
  0.36691E-02
  0.26267E-02
  0.11842E-01
  0.69890E-02
 -0.39731E-02
  0.86116E-03
  0.53706E-02
 -0.17282E-01
  0.18477E-03
  0.65110E-02
  0.69122E-02
  0.99475E-03
 -0.42492E-02
 -0.12483E-02
  0.49113E-02
 -0.89643E-02
 -0.70446E-02
 -0.11692E-02
  0.41210E-02
 -0.46111E-02
  0.10309E-01
 -0.65410E-02
  0.57786E-02
 -0.22971E-02
 -0.50888E-02
 -0.44163E-02
  0.63998E-02
 -0.19592E-01
 -0.77621E-02
 -0.33212E-02
  0.84622E-02
  0.26231E-02
 -0.10582E-01
 -0.29617E-01
  0.63585E-02
  0.83503E-02
  0.11863E-01
  0.12912E-02
  0.33353E-02
 -0.59342E-02
 -0.28936E-02
  0.49013E-02
  0.31610E-02
 -0.42429E-02
  0.16755E-02
  0.86622E-02
  0.58351E-02
 -0.17283E-02
 -0.21691E-01
 -0.21944E-01
  0.37932E-02
  0.19787E-02
  0.55959E-02
  0.41158E-02
 -0.74440E-02
  0.30337E-02
 -0.55417E-02
 -0.19662E-01
  0.66588E-02
 -0.17836E-02
  0.16066E-01
  0.19937E-02
 -0.26620E-01
  0.12585E-01
 -0.71129E-02
  0.42948E-02
  0.33064E-02
  0.90527E-02
 -0.90224E-02
  0.54393E-02
  0.16349E-01
 -0.75394E-02
  0.19327E-01
  0.87066E-02
  0.24402E-01
  0.19518E-01
  0.73916E-02
  0.17877E-01
 -0.14894E-01
 -0.17500E-01
  0.96738E-02
  0.12791E-01
  0.77465E-02
  0.16973E-01
 -0.52024E-02
  0.76483E-02
 -0.46979E-01
 -0.54961E-01
 -0.10763E-01
  0.12312E-01
 -0.43615E-02
 -0.55570E-01
 -0.13172E-01
  0.26943E-02
  0.41146E-02
 -0.47241E-01
 -0.46724E-01