# vtk DataFile Version 2.0
Unstructured Grid UFVM-ECOMOD
ASCII
DATASET UNSTRUCTURED_GRID
 POINTS         1420  float
  0.00000E+00  0.00000E+00  0.00000E+00
  0.40000E+01  0.00000E+00  0.00000E+00
  0.40000E+01  0.20000E+01  0.00000E+00
  0.00000E+00  0.20000E+01  0.00000E+00
  0.10433E+01  0.10046E+01  0.00000E+00
  0.10392E+01  0.96756E+00  0.00000E+00
  0.10272E+01  0.93281E+00  0.00000E+00
  0.10079E+01  0.90258E+00  0.00000E+00
  0.98260E+00  0.87876E+00  0.00000E+00
  0.95293E+00  0.86285E+00  0.00000E+00
  0.92072E+00  0.85585E+00  0.00000E+00
  0.88798E+00  0.85820E+00  0.00000E+00
  0.85679E+00  0.86974E+00  0.00000E+00
  0.82910E+00  0.88977E+00  0.00000E+00
  0.80665E+00  0.91701E+00  0.00000E+00
  0.79085E+00  0.94975E+00  0.00000E+00
  0.78270E+00  0.98595E+00  0.00000E+00
  0.78270E+00  0.10233E+01  0.00000E+00
  0.79085E+00  0.10595E+01  0.00000E+00
  0.80665E+00  0.10922E+01  0.00000E+00
  0.82910E+00  0.11195E+01  0.00000E+00
  0.85679E+00  0.11395E+01  0.00000E+00
  0.88798E+00  0.11511E+01  0.00000E+00
  0.92072E+00  0.11534E+01  0.00000E+00
  0.95293E+00  0.11464E+01  0.00000E+00
  0.98260E+00  0.11305E+01  0.00000E+00
  0.10079E+01  0.11067E+01  0.00000E+00
  0.10272E+01  0.10764E+01  0.00000E+00
  0.10392E+01  0.10417E+01  0.00000E+00
  0.10000E+00  0.00000E+00  0.00000E+00
  0.20000E+00  0.00000E+00  0.00000E+00
  0.30000E+00  0.00000E+00  0.00000E+00
  0.40000E+00  0.00000E+00  0.00000E+00
  0.50000E+00  0.00000E+00  0.00000E+00
  0.60000E+00  0.00000E+00  0.00000E+00
  0.70000E+00  0.00000E+00  0.00000E+00
  0.80000E+00  0.00000E+00  0.00000E+00
  0.90000E+00  0.00000E+00  0.00000E+00
  0.10000E+01  0.00000E+00  0.00000E+00
  0.11000E+01  0.00000E+00  0.00000E+00
  0.12000E+01  0.00000E+00  0.00000E+00
  0.13000E+01  0.00000E+00  0.00000E+00
  0.14000E+01  0.00000E+00  0.00000E+00
  0.15000E+01  0.00000E+00  0.00000E+00
  0.16000E+01  0.00000E+00  0.00000E+00
  0.17000E+01  0.00000E+00  0.00000E+00
  0.18000E+01  0.00000E+00  0.00000E+00
  0.19000E+01  0.00000E+00  0.00000E+00
  0.20000E+01  0.00000E+00  0.00000E+00
  0.21000E+01  0.00000E+00  0.00000E+00
  0.22000E+01  0.00000E+00  0.00000E+00
  0.23000E+01  0.00000E+00  0.00000E+00
  0.24000E+01  0.00000E+00  0.00000E+00
  0.25000E+01  0.00000E+00  0.00000E+00
  0.26000E+01  0.00000E+00  0.00000E+00
  0.27000E+01  0.00000E+00  0.00000E+00
  0.28000E+01  0.00000E+00  0.00000E+00
  0.29000E+01  0.00000E+00  0.00000E+00
  0.30000E+01  0.00000E+00  0.00000E+00
  0.31000E+01  0.00000E+00  0.00000E+00
  0.32000E+01  0.00000E+00  0.00000E+00
  0.33000E+01  0.00000E+00  0.00000E+00
  0.34000E+01  0.00000E+00  0.00000E+00
  0.35000E+01  0.00000E+00  0.00000E+00
  0.36000E+01  0.00000E+00  0.00000E+00
  0.37000E+01  0.00000E+00  0.00000E+00
  0.38000E+01  0.00000E+00  0.00000E+00
  0.39000E+01  0.00000E+00  0.00000E+00
  0.40000E+01  0.10000E+00  0.00000E+00
  0.40000E+01  0.20000E+00  0.00000E+00
  0.40000E+01  0.30000E+00  0.00000E+00
  0.40000E+01  0.40000E+00  0.00000E+00
  0.40000E+01  0.50000E+00  0.00000E+00
  0.40000E+01  0.60000E+00  0.00000E+00
  0.40000E+01  0.70000E+00  0.00000E+00
  0.40000E+01  0.80000E+00  0.00000E+00
  0.40000E+01  0.90000E+00  0.00000E+00
  0.40000E+01  0.10000E+01  0.00000E+00
  0.40000E+01  0.11000E+01  0.00000E+00
  0.40000E+01  0.12000E+01  0.00000E+00
  0.40000E+01  0.13000E+01  0.00000E+00
  0.40000E+01  0.14000E+01  0.00000E+00
  0.40000E+01  0.15000E+01  0.00000E+00
  0.40000E+01  0.16000E+01  0.00000E+00
  0.40000E+01  0.17000E+01  0.00000E+00
  0.40000E+01  0.18000E+01  0.00000E+00
  0.40000E+01  0.19000E+01  0.00000E+00
  0.39000E+01  0.20000E+01  0.00000E+00
  0.38000E+01  0.20000E+01  0.00000E+00
  0.37000E+01  0.20000E+01  0.00000E+00
  0.36000E+01  0.20000E+01  0.00000E+00
  0.35000E+01  0.20000E+01  0.00000E+00
  0.34000E+01  0.20000E+01  0.00000E+00
  0.33000E+01  0.20000E+01  0.00000E+00
  0.32000E+01  0.20000E+01  0.00000E+00
  0.31000E+01  0.20000E+01  0.00000E+00
  0.30000E+01  0.20000E+01  0.00000E+00
  0.29000E+01  0.20000E+01  0.00000E+00
  0.28000E+01  0.20000E+01  0.00000E+00
  0.27000E+01  0.20000E+01  0.00000E+00
  0.26000E+01  0.20000E+01  0.00000E+00
  0.25000E+01  0.20000E+01  0.00000E+00
  0.24000E+01  0.20000E+01  0.00000E+00
  0.23000E+01  0.20000E+01  0.00000E+00
  0.22000E+01  0.20000E+01  0.00000E+00
  0.21000E+01  0.20000E+01  0.00000E+00
  0.20000E+01  0.20000E+01  0.00000E+00
  0.19000E+01  0.20000E+01  0.00000E+00
  0.18000E+01  0.20000E+01  0.00000E+00
  0.17000E+01  0.20000E+01  0.00000E+00
  0.16000E+01  0.20000E+01  0.00000E+00
  0.15000E+01  0.20000E+01  0.00000E+00
  0.14000E+01  0.20000E+01  0.00000E+00
  0.13000E+01  0.20000E+01  0.00000E+00
  0.12000E+01  0.20000E+01  0.00000E+00
  0.11000E+01  0.20000E+01  0.00000E+00
  0.10000E+01  0.20000E+01  0.00000E+00
  0.90000E+00  0.20000E+01  0.00000E+00
  0.80000E+00  0.20000E+01  0.00000E+00
  0.70000E+00  0.20000E+01  0.00000E+00
  0.60000E+00  0.20000E+01  0.00000E+00
  0.50000E+00  0.20000E+01  0.00000E+00
  0.40000E+00  0.20000E+01  0.00000E+00
  0.30000E+00  0.20000E+01  0.00000E+00
  0.20000E+00  0.20000E+01  0.00000E+00
  0.10000E+00  0.20000E+01  0.00000E+00
  0.00000E+00  0.19000E+01  0.00000E+00
  0.00000E+00  0.18000E+01  0.00000E+00
  0.00000E+00  0.17000E+01  0.00000E+00
  0.00000E+00  0.16000E+01  0.00000E+00
  0.00000E+00  0.15000E+01  0.00000E+00
  0.00000E+00  0.14000E+01  0.00000E+00
  0.00000E+00  0.13000E+01  0.00000E+00
  0.00000E+00  0.12000E+01  0.00000E+00
  0.00000E+00  0.11000E+01  0.00000E+00
  0.00000E+00  0.10000E+01  0.00000E+00
  0.00000E+00  0.90000E+00  0.00000E+00
  0.00000E+00  0.80000E+00  0.00000E+00
  0.00000E+00  0.70000E+00  0.00000E+00
  0.00000E+00  0.60000E+00  0.00000E+00
  0.00000E+00  0.50000E+00  0.00000E+00
  0.00000E+00  0.40000E+00  0.00000E+00
  0.00000E+00  0.30000E+00  0.00000E+00
  0.00000E+00  0.20000E+00  0.00000E+00
  0.00000E+00  0.10000E+00  0.00000E+00
  0.19476E+01  0.85910E-01  0.00000E+00
  0.19458E+01  0.19136E+01  0.00000E+00
  0.29500E+01  0.19134E+01  0.00000E+00
  0.24474E+01  0.19097E+01  0.00000E+00
  0.27468E+01  0.83590E-01  0.00000E+00
  0.23486E+01  0.86060E-01  0.00000E+00
  0.39202E+01  0.95555E+00  0.00000E+00
  0.31524E+01  0.79860E-01  0.00000E+00
  0.15434E+01  0.81060E-01  0.00000E+00
  0.15561E+01  0.19190E+01  0.00000E+00
  0.33401E+01  0.19193E+01  0.00000E+00
  0.55000E+00  0.86600E-01  0.00000E+00
  0.54321E+00  0.18970E+01  0.00000E+00
  0.12576E+01  0.94170E-01  0.00000E+00
  0.12595E+01  0.19031E+01  0.00000E+00
  0.85260E-01  0.64891E+00  0.00000E+00
  0.39224E+01  0.13485E+01  0.00000E+00
  0.97850E-01  0.13456E+01  0.00000E+00
  0.85263E+00  0.92690E-01  0.00000E+00
  0.90232E+00  0.82868E+00  0.00000E+00
  0.39134E+01  0.55000E+00  0.00000E+00
  0.85000E+00  0.19134E+01  0.00000E+00
  0.90219E+00  0.11796E+01  0.00000E+00
  0.73730E-01  0.95061E+00  0.00000E+00
  0.34521E+01  0.83790E-01  0.00000E+00
  0.36500E+01  0.19134E+01  0.00000E+00
  0.86600E-01  0.16500E+01  0.00000E+00
  0.91260E-01  0.35125E+00  0.00000E+00
  0.39122E+01  0.16529E+01  0.00000E+00
  0.79770E-01  0.11522E+01  0.00000E+00
  0.10500E+01  0.19134E+01  0.00000E+00
  0.10436E+01  0.96320E-01  0.00000E+00
  0.34641E+00  0.19165E+01  0.00000E+00
  0.35117E+00  0.98680E-01  0.00000E+00
  0.17489E+01  0.19152E+01  0.00000E+00
  0.17477E+01  0.85050E-01  0.00000E+00
  0.21486E+01  0.19136E+01  0.00000E+00
  0.21494E+01  0.85650E-01  0.00000E+00
  0.25494E+01  0.86540E-01  0.00000E+00
  0.39145E+01  0.11516E+01  0.00000E+00
  0.36500E+01  0.85140E-01  0.00000E+00
  0.29463E+01  0.83430E-01  0.00000E+00
  0.31423E+01  0.19179E+01  0.00000E+00
  0.27493E+01  0.19098E+01  0.00000E+00
  0.39010E+01  0.34178E+00  0.00000E+00
  0.39152E+01  0.74696E+00  0.00000E+00
  0.90200E-01  0.18440E+01  0.00000E+00
  0.38461E+01  0.84370E-01  0.00000E+00
  0.93600E-01  0.14922E+00  0.00000E+00
  0.38527E+01  0.19149E+01  0.00000E+00
  0.93499E+00  0.11827E+01  0.00000E+00
  0.91733E+00  0.12123E+01  0.00000E+00
  0.95207E+00  0.12164E+01  0.00000E+00
  0.93165E+00  0.12471E+01  0.00000E+00
  0.97084E+00  0.12505E+01  0.00000E+00
  0.89437E+00  0.12359E+01  0.00000E+00
  0.94819E+00  0.12843E+01  0.00000E+00
  0.99065E+00  0.12884E+01  0.00000E+00
  0.96461E+00  0.13251E+01  0.00000E+00
  0.10110E+01  0.13286E+01  0.00000E+00
  0.10361E+01  0.12902E+01  0.00000E+00
  0.10582E+01  0.13315E+01  0.00000E+00
  0.10845E+01  0.12921E+01  0.00000E+00
  0.11074E+01  0.13353E+01  0.00000E+00
  0.11351E+01  0.12931E+01  0.00000E+00
  0.11593E+01  0.13388E+01  0.00000E+00
  0.11880E+01  0.12934E+01  0.00000E+00
  0.12152E+01  0.13430E+01  0.00000E+00
  0.12465E+01  0.12932E+01  0.00000E+00
  0.12751E+01  0.13479E+01  0.00000E+00
  0.13089E+01  0.12933E+01  0.00000E+00
  0.13392E+01  0.13518E+01  0.00000E+00
  0.13744E+01  0.12961E+01  0.00000E+00
  0.13422E+01  0.12370E+01  0.00000E+00
  0.14103E+01  0.12382E+01  0.00000E+00
  0.13774E+01  0.11782E+01  0.00000E+00
  0.14470E+01  0.11795E+01  0.00000E+00
  0.14109E+01  0.11172E+01  0.00000E+00
  0.14840E+01  0.11192E+01  0.00000E+00
  0.14492E+01  0.10568E+01  0.00000E+00
  0.15224E+01  0.10578E+01  0.00000E+00
  0.15578E+01  0.11226E+01  0.00000E+00
  0.15980E+01  0.10587E+01  0.00000E+00
  0.16344E+01  0.11264E+01  0.00000E+00
  0.16757E+01  0.10600E+01  0.00000E+00
  0.17140E+01  0.11301E+01  0.00000E+00
  0.17569E+01  0.10614E+01  0.00000E+00
  0.17947E+01  0.11329E+01  0.00000E+00
  0.18396E+01  0.10629E+01  0.00000E+00
  0.18817E+01  0.11349E+01  0.00000E+00
  0.19258E+01  0.10641E+01  0.00000E+00
  0.14867E+01  0.99385E+00  0.00000E+00
  0.19700E+01  0.11392E+01  0.00000E+00
  0.20134E+01  0.10659E+01  0.00000E+00
  0.20560E+01  0.11394E+01  0.00000E+00
  0.21025E+01  0.10675E+01  0.00000E+00
  0.21507E+01  0.11553E+01  0.00000E+00
  0.21942E+01  0.10716E+01  0.00000E+00
  0.22424E+01  0.11506E+01  0.00000E+00
  0.22867E+01  0.10733E+01  0.00000E+00
  0.17993E+01  0.99189E+00  0.00000E+00
  0.20571E+01  0.99091E+00  0.00000E+00
[...]
 POINT_DATA         1420
  
 SCALARS WL      float 1
 LOOKUP_TABLE default
  0.90922E-02
  0.62637E-04
  0.47811E-02
  0.48403E-02
 -0.32093E-01
 -0.31060E-01
 -0.27275E-01
 -0.24582E-01
 -0.23616E-01
 -0.26796E-01
 -0.37864E-01
 -0.39495E-01
 -0.23848E-01
 -0.59967E-02
  0.11721E-01
  0.22871E-01
  0.28299E-01
  0.28656E-01
  0.23071E-01
  0.11734E-01
 -0.39920E-02
 -0.24099E-01
 -0.45601E-01
 -0.53679E-01
 -0.42336E-01
 -0.35665E-01
 -0.34155E-01
 -0.33128E-01
 -0.31979E-01
  0.89592E-02
  0.84565E-02
  0.75317E-02
  0.62180E-02
  0.45874E-02
  0.26481E-02
  0.51889E-03
 -0.14793E-02
 -0.33632E-02
 -0.47946E-02
 -0.55191E-02
 -0.54484E-02
 -0.46709E-02
 -0.35210E-02
 -0.22164E-02
 -0.10148E-02
 -0.10996E-04
  0.81276E-03
  0.15172E-02
  0.20510E-02
  0.24312E-02
  0.27209E-02
  0.30071E-02
  0.34197E-02
  0.40500E-02
  0.49070E-02
  0.59103E-02
  0.68229E-02
  0.73694E-02
  0.73741E-02
  0.68221E-02
  0.58673E-02
  0.47152E-02
  0.35617E-02
  0.25621E-02
  0.18128E-02
  0.12566E-02
  0.78529E-03
  0.33443E-03
  0.00000E+00
  0.00000E+00
  0.00000E+00
  0.00000E+00
  0.00000E+00
  0.00000E+00
  0.00000E+00
  0.00000E+00
  0.00000E+00
  0.00000E+00
  0.00000E+00
  0.00000E+00
  0.00000E+00
  0.00000E+00
  0.00000E+00
  0.00000E+00
  0.00000E+00
  0.00000E+00
  0.00000E+00
  0.67788E-02
  0.88187E-02
  0.90471E-02
  0.80484E-02
  0.63309E-02
  0.46745E-02
  0.34606E-02
  0.26998E-02
  0.22922E-02
  0.21268E-02
  0.20956E-02
  0.21439E-02
  0.22186E-02
  0.22949E-02
  0.23736E-02
  0.24434E-02
  0.24976E-02
  0.25169E-02
  0.24489E-02
  0.22356E-02
  0.18829E-02
  0.13955E-02
  0.88210E-03
  0.39872E-03
  0.23974E-04
 -0.11138E-03
  0.19492E-04
  0.43642E-03
  0.10804E-02
  0.17324E-02
  0.24027E-02
  0.29285E-02
  0.33385E-02
  0.36718E-02
  0.38981E-02
  0.41486E-02
  0.43637E-02
  0.45644E-02
  0.47308E-02
  0.49478E-02
  0.52391E-02
  0.56663E-02
  0.62636E-02
  0.69403E-02
  0.76806E-02
  0.84456E-02
  0.90933E-02
  0.96221E-02
  0.99941E-02
  0.10171E-01
  0.10182E-01
  0.10068E-01
  0.98867E-02
  0.96842E-02
  0.94884E-02
  0.93093E-02
  0.91954E-02
  0.91223E-02
  0.18582E-02
  0.20296E-02
  0.20955E-02
  0.24954E-02
  0.63403E-02
  0.31864E-02
 -0.67355E-03
  0.63728E-02
 -0.16696E-02
  0.15674E-03
  0.39971E-02
  0.37561E-02
  0.39040E-02
 -0.51117E-02
 -0.46167E-04
  0.99578E-02
  0.16834E-02
  0.81063E-02
 -0.25443E-02
 -0.33862E-01
 -0.75848E-04
  0.26191E-02
 -0.42083E-01
  0.10138E-01
  0.30685E-02
  0.86672E-02
  0.58589E-02
  0.93001E-02
  0.55304E-02
  0.94108E-02
  0.12521E-02
 -0.53105E-02
  0.43566E-02
  0.69566E-02
  0.11057E-02
  0.43179E-03
  0.25189E-02
  0.26219E-02
  0.44248E-02
  0.94558E-05
  0.15423E-02
  0.74246E-02
  0.24369E-02
  0.22190E-02
  0.32474E-03
 -0.30569E-03
  0.49980E-02
  0.55668E-03
  0.90441E-02
  0.79093E-02
 -0.42224E-01
 -0.30202E-01
 -0.30112E-01
 -0.22726E-01
 -0.23444E-01
 -0.20272E-01
 -0.17692E-01
 -0.18566E-01
 -0.14007E-01
 -0.14671E-01
 -0.18215E-01
 -0.14227E-01
 -0.16530E-01
 -0.12626E-01
 -0.13483E-01
 -0.10083E-01
 -0.98090E-02
 -0.69383E-02
 -0.49971E-02
 -0.35353E-02
 -0.60091E-03
 -0.95541E-03
  0.94363E-03
  0.19769E-02
  0.11527E-02
 -0.34827E-02
 -0.50495E-02
 -0.15573E-01
 -0.13942E-01
 -0.23104E-01
 -0.18310E-01
 -0.14330E-01
 -0.17471E-01
 -0.18134E-01
 -0.19897E-01
 -0.21367E-01
 -0.21557E-01
 -0.20009E-01
 -0.18423E-01
 -0.13947E-01
 -0.12769E-01
 -0.22510E-01
 -0.79999E-02
 -0.83140E-02
 -0.48348E-02
 -0.61783E-02
 -0.28204E-02
 -0.61129E-02
 -0.30926E-02
 -0.68935E-02
 -0.17807E-01
 -0.84392E-02
 -0.31284E-02
 -0.68524E-02
 -0.27727E-02
 -0.53988E-02
 -0.20138E-02
 -0.36928E-02
 -0.16996E-02
 -0.29746E-02
 -0.23010E-02
 -0.34459E-02
 -0.38215E-02
 -0.49152E-02
 -0.57758E-02
 -0.63627E-02
 -0.66444E-02
 -0.97661E-02
 -0.33552E-02
 -0.59935E-02
 -0.25049E-03
 -0.51415E-02
 -0.11094E-01
 -0.94731E-02
 -0.96561E-02
 -0.36606E-02
 -0.35902E-02
 -0.18222E-01
 -0.76610E-02
 -0.56029E-02
 -0.22208E-02
 -0.13168E-02
 -0.45745E-03
 -0.32102E-02
 -0.15402E-03
 -0.32948E-01
  0.96823E-03
  0.22138E-02
  0.28098E-03
 -0.46440E-02
 -0.25360E-02
 -0.36604E-02
 -0.31691E-01
 -0.23235E-01
 -0.25579E-01
 -0.29154E-01
 -0.27600E-02
 -0.27897E-02
 -0.39460E-04
  0.26138E-02
  0.38983E-02
  0.37094E-02
  0.15595E-02
 -0.36477E-01
 -0.26024E-01
 -0.36011E-01
 -0.23633E-01
 -0.15663E-01
 -0.13910E-01
 -0.89240E-02
 -0.18822E-01
 -0.11867E-01
 -0.14702E-01
 -0.10159E-01
 -0.12071E-01
  0.35340E-02
  0.46941E-02
 -0.89636E-02
 -0.10246E-01
 -0.71472E-02
 -0.21113E-02
 -0.22671E-03
 -0.56735E-04
  0.17777E-02
  0.25071E-02
  0.36493E-02
  0.47627E-02
  0.51278E-02
  0.64306E-02
  0.62862E-02
  0.75509E-02
 -0.37322E-02
  0.81257E-02
  0.89775E-02
  0.67276E-02
  0.10048E-01
  0.10309E-01
  0.11700E-01
  0.11443E-01
  0.13044E-01
  0.70575E-02
  0.12219E-01
  0.13781E-01
 -0.10544E-03
  0.20899E-02
  0.28826E-02
  0.26269E-01
 -0.13009E-01
 -0.10923E-01
 -0.13271E-01
 -0.11097E-01
 -0.94983E-02
 -0.93602E-02
 -0.10573E-01
 -0.85765E-02
 -0.10142E-01
 -0.93504E-02
 -0.69870E-02
 -0.69504E-02
 -0.46776E-02
 -0.38750E-02
 -0.19617E-02
 -0.66314E-03
  0.66368E-03
  0.23875E-02
  0.18086E-01
  0.29693E-02
  0.49034E-02
  0.48885E-02
  0.67174E-02
  0.64295E-02
  0.79512E-02
  0.86118E-02
  0.93070E-02
  0.15712E-02
  0.10239E-01
  0.38242E-02
  0.10463E-01
 -0.40241E-01
 -0.69166E-02
  0.48182E-02
 -0.16159E-01
 -0.66521E-02
 -0.50666E-02
  0.12580E-01
  0.76293E-02
  0.20818E-02
  0.38029E-02
  0.33665E-02
  0.47344E-02
 -0.15151E-02
 -0.27766E-02
  0.20482E-02
  0.24495E-03
  0.63578E-02
  0.59916E-02
  0.65385E-02
 -0.61991E-02
  0.48790E-02
  0.36536E-02
  0.10229E-01
 -0.11906E-01
  0.37097E-02
  0.13900E-01
  0.12537E-01
 -0.14041E-01
 -0.50590E-02
 -0.36416E-02
 -0.33062E-02
 -0.21285E-02
 -0.14822E-02
 -0.64657E-03
  0.26105E-03
  0.69461E-03
  0.16858E-02
  0.19131E-02
  0.27103E-02
  0.24414E-02
  0.31301E-02
  0.32220E-02
  0.26178E-02
  0.27874E-02
  0.80826E-03
  0.14701E-02
 -0.18879E-02
  0.14913E-03
 -0.39069E-02
 -0.27781E-03
 -0.36615E-02
  0.46356E-03
 -0.15264E-02
  0.17352E-02
  0.79145E-03
  0.30306E-02
  0.25486E-02
  0.42158E-02
  0.38649E-02
  0.52275E-02
 -0.83061E-02
  0.55633E-02
  0.54544E-02
  0.61109E-02
  0.24786E-02
 -0.41698E-02
  0.52349E-02
 -0.99853E-02
  0.62164E-02
 -0.26247E-02
 -0.34112E-01
  0.75648E-02
  0.85291E-02
  0.63551E-02
 -0.16880E-02
  0.17426E-02
 -0.85543E-03
 -0.18188E-02
  0.65081E-02
 -0.97252E-02
  0.11361E-01
  0.15496E-01
  0.15107E-01
  0.56586E-02
  0.60231E-02
  0.68313E-02
  0.37867E-02
  0.20697E-02
  0.91398E-03
  0.11402E-01
 -0.29010E-02
  0.17213E-01
  0.48393E-02
 -0.39276E-02
 -0.51643E-02
 -0.32164E-02
  0.58392E-02
  0.49180E-02
  0.65357E-02
 -0.88757E-02
  0.19160E-02
 -0.32728E-02
  0.28038E-02
  0.15952E-01
 -0.50682E-02
  0.73337E-02
  0.17997E-02
  0.24289E-02
  0.14039E-01
 -0.36384E-02
 -0.24224E-02
 -0.39220E-02
 -0.26397E-02
  0.17709E-01
  0.43814E-02
  0.76039E-02
  0.72223E-02
 -0.60765E-02
  0.53060E-02
  0.49018E-02
  0.55459E-02
  0.58011E-02
 -0.19458E-02
  0.23523E-02
  0.21014E-02
  0.92972E-03
 -0.25543E-03
  0.69655E-03
  0.18343E-01
  0.16076E-01
  0.21256E-02
  0.15949E-02
  0.33621E-03
  0.15008E-02
  0.62653E-03
  0.18493E-02
  0.15097E-02
  0.24791E-02
  0.24878E-02
  0.30767E-02
  0.31997E-02
  0.33772E-02
  0.35052E-02
  0.34330E-02
  0.34714E-02
  0.33048E-02
  0.32244E-02
  0.30629E-02
  0.27529E-02
  0.26331E-02
  0.21288E-02
  0.20652E-02
  0.13157E-02
  0.13862E-02
  0.41606E-03
  0.69463E-03
 -0.55699E-03
  0.48113E-04
 -0.13960E-02
 -0.53403E-03
 -0.18145E-02
 -0.84062E-03
 -0.19565E-03
 -0.53226E-03
  0.30902E-02
  0.89894E-03
  0.25226E-04
  0.24306E-03
 -0.50242E-03
  0.81759E-02
  0.77441E-02
 -0.67023E-02
 -0.96521E-03
 -0.94531E-03
  0.59671E-02
  0.62118E-02
  0.50871E-02
  0.54356E-02
  0.37625E-02
  0.31079E-02
  0.51800E-02
  0.41500E-02
  0.54559E-02
  0.40739E-02
 -0.36485E-02
 -0.24721E-02
  0.36541E-02
  0.19673E-02
 -0.22388E-01
 -0.23495E-02
 -0.42344E-02
 -0.52062E-02
 -0.29564E-02
 -0.14297E-02
 -0.13251E-02
 -0.88563E-02
 -0.45642E-02
 -0.30423E-02
  0.64741E-02
  0.49147E-02
  0.18201E-01
  0.15006E-01
  0.21614E-01
  0.67146E-02
 -0.21469E-01
 -0.81470E-02
 -0.73913E-02
 -0.37500E-02
 -0.37147E-02
 -0.51897E-03
 -0.10180E-02
 -0.15796E-01
 -0.19285E-01
 -0.18332E-01
 -0.21588E-01
 -0.25002E-01
 -0.25537E-01
 -0.31888E-01
 -0.31254E-01
 -0.38263E-01
 -0.37444E-01
  0.68710E-02
  0.70926E-02
  0.16303E-01
  0.12721E-01
  0.11535E-01
  0.20410E-02
  0.20477E-02
 -0.95582E-03
 -0.46586E-02
 -0.12509E-02
  0.21382E-02
 -0.20208E-01
 -0.17366E-01
 -0.20404E-01
 -0.17453E-01
 -0.50985E-02
  0.10119E-02
  0.18514E-02
 -0.42536E-01
 -0.40963E-01
 -0.10519E-02
 -0.13856E-02
  0.91249E-02
  0.61097E-02
 -0.16499E-01
  0.46995E-02
  0.43281E-02
  0.43111E-02
  0.38289E-02
  0.32938E-02
 -0.34844E-02
  0.10129E-01
 -0.36286E-01
 -0.37452E-01
 -0.40398E-01
 -0.33268E-01
 -0.33309E-01
 -0.24246E-01
 -0.28084E-01
  0.13870E-01
  0.11130E-02
  0.35593E-02
  0.58652E-02
  0.38167E-02
  0.30924E-02
  0.26748E-02
  0.21575E-02
  0.16647E-02
  0.19982E-02
  0.62158E-02
 -0.29043E-01
 -0.13329E-02
  0.10506E-02
  0.10083E-02
  0.26584E-02
  0.13785E-02
  0.43603E-02
  0.26263E-02
  0.58782E-02
  0.17949E-02
  0.74572E-03
 -0.20297E-03
 -0.11383E-02
 -0.23363E-02
 -0.30388E-02
 -0.42669E-02
 -0.47249E-02
  0.13202E-02
 -0.15025E-03
 -0.57537E-03
 -0.15507E-02
 -0.55441E-02
 -0.77145E-02
 -0.34486E-01
 -0.12921E-02
 -0.63644E-04
  0.45526E-02
  0.26904E-02
  0.21943E-02
 -0.18879E-01
 -0.25708E-01
 -0.72029E-02
 -0.66874E-02
  0.30724E-03
 -0.60002E-05
 -0.24259E-01
 -0.53221E-03
 -0.85745E-03
 -0.13131E-01
  0.84752E-02
  0.74381E-02
  0.65185E-02
  0.87479E-02
  0.96724E-02
  0.10444E-01
  0.98238E-02
  0.10349E-01
  0.10948E-01
  0.10601E-01
  0.11102E-01
  0.10253E-01
 -0.20690E-01
 -0.16741E-01
  0.15062E-02
  0.24827E-02
  0.51685E-02
 -0.28398E-03
 -0.17192E-01
  0.43795E-02
  0.53756E-02
  0.68267E-02
 -0.70517E-02
  0.30521E-03
  0.25808E-03
 -0.12402E-03
  0.16260E-03
  0.60226E-02
 -0.14541E-01
 -0.12643E-01
 -0.14453E-01
 -0.85476E-02
 -0.47156E-03
 -0.51688E-02
  0.86886E-02
  0.10618E-01
  0.10945E-01
 -0.41085E-02
  0.34501E-02
  0.11610E-01
 -0.62616E-02
  0.11971E-01
 -0.27111E-02
 -0.42781E-03
  0.16989E-02
 -0.20279E-02
 -0.16044E-02
 -0.24545E-01
 -0.84292E-02
 -0.27289E-01
 -0.56507E-03
 -0.11483E-02
 -0.23000E-01
 -0.72081E-02
  0.47104E-02
 -0.82797E-02
  0.38896E-02
  0.12768E-01
  0.93242E-02
  0.23919E-02
  0.14271E-01
  0.70982E-02
  0.18155E-02
  0.57686E-02
  0.18736E-02
 -0.31347E-02
  0.18311E-01
  0.17181E-01
  0.20916E-01
  0.14029E-01
  0.15498E-01
 -0.12732E-02
 -0.91184E-02
  0.12819E-02
  0.52846E-02
 -0.33877E-01
 -0.33418E-01
 -0.25006E-01
 -0.90650E-02
  0.31780E-02
  0.34918E-02
 -0.33950E-01
 -0.33262E-01
 -0.34528E-01
  0.14521E-01
  0.19414E-01
  0.13326E-02
 -0.31631E-01
  0.28182E-01
 -0.32394E-01
  0.54975E-02
  0.70279E-02
  0.40281E-02
 -0.14546E-02
  0.91690E-02
  0.80824E-02
  0.24871E-01
 -0.34667E-01
 -0.92940E-03
 -0.74831E-02
 -0.23211E-02
 -0.17687E-02
 -0.12112E-02
 -0.21504E-01
 -0.16188E-02
 -0.87297E-03
  0.40760E-02
  0.13540E-02
 -0.28183E-01
  0.90516E-02
  0.57427E-02
  0.46575E-02
  0.49003E-02
 -0.21657E-01
  0.68226E-02
  0.68608E-02
  0.71361E-02
  0.64799E-02
  0.23734E-02
  0.21067E-02
  0.10431E-01
  0.10556E-01
  0.10105E-01
  0.10008E-01
  0.10697E-01
  0.98210E-02
 -0.74999E-02
  0.57775E-02
  0.24713E-01
  0.63773E-02
  0.71740E-02
  0.77715E-02
  0.82130E-02
  0.85304E-02
 -0.36687E-02
 -0.50596E-02
 -0.32028E-01
 -0.28628E-01
 -0.29628E-01
 -0.32404E-01
  0.31468E-02
  0.29533E-02
  0.93267E-02
  0.90191E-02
  0.95450E-02
  0.86033E-02
  0.90094E-02
  0.80792E-02
  0.77674E-02
  0.84393E-02
 -0.26453E-02
 -0.40088E-02
 -0.13350E-01
  0.71244E-02
  0.69797E-02
  0.63426E-02
  0.62420E-02
  0.57602E-02
  0.69072E-02
  0.60447E-02
  0.20096E-01
 -0.10019E-01
 -0.76453E-02
 -0.52232E-03
  0.42025E-02
  0.45757E-02
 -0.14639E-02
 -0.31927E-01
 -0.16989E-01
 -0.21174E-01
  0.15091E-01
 -0.27766E-02
 -0.24607E-02
  0.18653E-01
 -0.21350E-01
  0.96450E-02
 -0.44113E-01
 -0.21589E-01
 -0.42428E-02
 -0.58102E-02
 -0.56768E-02
 -0.58190E-02
 -0.18118E-01
 -0.51351E-02
 -0.14641E-01
  0.71451E-02
 -0.31259E-01
  0.83957E-02
 -0.18054E-02
 -0.42953E-03
  0.19795E-02
 -0.24356E-01
 -0.28970E-01
  0.64235E-02
 -0.18164E-01
 -0.11874E-01
 -0.60346E-02
 -0.30068E-01
  0.50461E-02
 -0.92325E-03
 -0.60937E-02
 -0.10283E-01
 -0.22676E-02
 -0.65576E-02
  0.16118E-02
  0.20039E-03
 -0.16326E-01
  0.13843E-01
 -0.23584E-01
 -0.36732E-02
  0.88243E-02
  0.49430E-02
  0.54693E-03
 -0.17297E-03
  0.29902E-03
 -0.49442E-02
  0.32853E-02
 -0.22154E-02
  0.48899E-02
 -0.17083E-02
 -0.41475E-01
  0.89031E-02
  0.87147E-02
  0.11768E-01
  0.11331E-01
  0.11709E-01
 -0.44492E-01
  0.61122E-03
  0.75851E-03
  0.12821E-02
  0.80203E-03
  0.13179E-02
  0.31345E-03
  0.17022E-02
  0.18376E-02
 -0.52449E-03
 -0.17177E-03
  0.88955E-03
  0.66719E-03
  0.15209E-02
  0.16982E-02
  0.21266E-02
  0.23326E-02
  0.27579E-02
  0.26060E-02
 -0.53121E-02
  0.98554E-03
  0.30794E-02
 -0.51504E-02
 -0.56592E-02
 -0.72954E-02
 -0.74417E-02
 -0.24581E-01
 -0.45774E-02
 -0.88567E-02
 -0.82751E-02
 -0.12454E-01
 -0.10889E-01
  0.25231E-01
  0.55189E-02
  0.21081E-02
  0.41539E-02
  0.74599E-02
 -0.72230E-02
  0.12859E-02
  0.12836E-01
  0.10231E-01
  0.10135E-01
  0.97457E-02
  0.97275E-02
  0.94495E-02
  0.93201E-02
  0.97099E-02
  0.40464E-03
  0.89696E-02
  0.12355E-02
  0.49173E-03
 -0.22861E-02
 -0.12119E-01
 -0.15142E-01
 -0.12680E-01
 -0.13235E-01
 -0.13853E-01
  0.23042E-02
  0.25929E-02
  0.27857E-02
  0.27870E-02
  0.27816E-02
  0.29948E-02
  0.30146E-02
  0.95360E-02
  0.61358E-02
  0.23530E-02
  0.24693E-02
  0.26421E-02
  0.26252E-02
  0.23071E-02
  0.21554E-02
  0.25687E-02
  0.27270E-02
  0.25503E-02
  0.27305E-02
  0.26857E-02
  0.29771E-02
  0.24200E-02
  0.25946E-02
  0.58403E-02
  0.61624E-02
 -0.33532E-01
  0.10306E-03
 -0.23762E-02
 -0.56753E-03
 -0.48343E-02
 -0.66995E-02
  0.11538E-02
  0.55927E-03
  0.13029E-02
 -0.33104E-03
  0.27230E-02
  0.31383E-02
  0.22305E-02
  0.21645E-02
 -0.87751E-02
 -0.81554E-02
 -0.39972E-02
 -0.38295E-02
 -0.61055E-02
 -0.74572E-03
 -0.12856E-02
 -0.24765E-04
  0.12176E-02
 -0.26209E-01
  0.36888E-02
  0.39519E-02
  0.47856E-02
  0.41964E-02
  0.34625E-02
  0.11545E-02
 -0.20206E-02
  0.45377E-02
  0.46632E-02
  0.48331E-02
  0.51949E-02
  0.52921E-02
  0.49538E-02
  0.80766E-02
 -0.69482E-02
  0.26394E-03
  0.16170E-02
 -0.38017E-03
  0.23308E-02
  0.24281E-02
  0.22725E-02
  0.25116E-02
 -0.59005E-02
  0.53584E-02
 -0.15847E-02
 -0.70488E-02
  0.22407E-02
 -0.29994E-02
  0.33688E-02
 -0.28812E-03
 -0.10595E-02
  0.32515E-02
 -0.29316E-02
 -0.11623E-02
 -0.35056E-02
 -0.23660E-02
  0.21322E-02
  0.21319E-02
  0.22537E-02
  0.11364E-01
  0.12691E-01
 -0.12092E-03
  0.20425E-02
  0.25794E-02
  0.99278E-03
  0.61326E-03
  0.18820E-02
  0.78793E-03
  0.49231E-02
  0.50548E-02
  0.15909E-02
  0.62534E-03
  0.11076E-02
 -0.29630E-03
  0.10409E-02
  0.81357E-03
  0.28857E-03
  0.61038E-03
  0.13125E-02
  0.90470E-02
  0.83520E-02
  0.22007E-02
  0.27387E-02
  0.71129E-02
  0.71714E-02
  0.60581E-02
 -0.74284E-03
 -0.29514E-03
  0.10925E-03
  0.76675E-03
  0.29882E-02
  0.21592E-02
  0.28210E-02
  0.15609E-02
  0.32077E-03
  0.42991E-02
  0.66384E-02
  0.28673E-02
  0.28363E-02
 -0.16222E-02
 -0.48214E-03
 -0.86857E-02
  0.78812E-02
  0.33769E-03
  0.32322E-02
  0.44622E-02
  0.52530E-02
 -0.27278E-02
  0.37641E-02
  0.17123E-02
  0.31623E-02
  0.22353E-02
  0.19632E-02
 -0.97770E-03
  0.53315E-02
  0.72323E-02
  0.63673E-02
 -0.50734E-02
 -0.27693E-02
 -0.53095E-02
  0.24326E-02
  0.21822E-02
  0.53725E-02
 -0.10047E-01
 -0.51481E-02
  0.30044E-02
 -0.17101E-02
  0.51543E-02
  0.49502E-02
 -0.10653E-01
 -0.84647E-02
  0.24488E-02
  0.85483E-02
  0.46661E-03
  0.33235E-02
  0.18477E-02
  0.30375E-02
 -0.30556E-02
  0.14276E-02
  0.91703E-02
  0.29797E-03
 -0.83874E-02
  0.92426E-02
  0.35830E-02
 -0.11738E-01
  0.35764E-02
  0.42708E-03
  0.22626E-02
 -0.55857E-02
  0.29910E-02
 -0.11869E-01
  0.10022E-01
  0.10931E-02
  0.81580E-02
 -0.14299E-01
 -0.84955E-02
  0.97813E-03
 -0.84566E-02
 -0.17937E-01
 -0.19098E-02
  0.11370E-02
 -0.17621E-01
  0.28558E-02
 -0.16089E-02
 -0.25926E-02
  0.10131E-02
 -0.17277E-01
 -0.23336E-02
  0.90438E-03
 -0.22988E-01
  0.75539E-02
 -0.13639E-01
 -0.51245E-02
  0.51476E-02
 -0.47999E-03
 -0.62753E-02
 -0.59375E-02
  0.74538E-02
  0.67986E-02
  0.32962E-02
  0.89499E-03
 -0.31071E-02
  0.78424E-02
 -0.97415E-03
 -0.21403E-03
 -0.10979E-01
  0.82606E-02
  0.87802E-02
  0.47238E-02
 -0.32791E-02
 -0.78789E-02
 -0.16834E-01
 -0.10312E-01
 -0.67057E-02
 -0.79210E-02
  0.10371E-01
 -0.62726E-03
 -0.13933E-02
  0.27748E-02
  0.60682E-02
  0.87443E-02
  0.92539E-02
  0.38964E-02
 -0.13297E-01
 -0.11635E-01
 -0.90438E-02
  0.13597E-02
  0.14299E-01
  0.10568E-02
 -0.13598E-01
  0.29643E-02
 -0.51617E-02
  0.22975E-01
 -0.50047E-03
  0.49702E-03
 -0.16300E-02
 -0.78373E-02
  0.11003E-01
 -0.20880E-03
  0.52695E-02
 -0.12093E-02
  0.76105E-02
 -0.14962E-01
  0.11555E-01
  0.12571E-01
  0.18305E-01
  0.10529E-01
  0.28209E-02
 -0.11127E-01
  0.74476E-02
  0.59946E-04
 -0.75789E-02
  0.28015E-02
 -0.44082E-02
  0.11182E-01
  0.28439E-02
 -0.67006E-02
  0.92956E-02
 -0.62371E-02
  0.19442E-02
  0.25791E-03
 -0.14263E-03
  0.32144E-02
 -0.69692E-02
 -0.48791E-02
 -0.10758E-01
  0.62471E-02
 -0.22520E-01
  0.69312E-03
 -0.19261E-02
  0.34694E-02
  0.22744E-02
  0.98815E-02
  0.33996E-02
 -0.15149E-03
 -0.18259E-01
  0.30506E-02
 -0.10998E-01
 -0.79384E-04
  0.44128E-02
  0.25343E-02
  0.32216E-02
  0.32118E-02
 -0.80368E-04
 -0.11109E-01
 -0.10073E-03
  0.17406E-02
 -0.81562E-02
 -0.11885E-03
  0.41464E-02
  0.51310E-02
 -0.13224E-01
  0.29295E-02
 -0.62567E-02
  0.92198E-02
 -0.13583E-01
  0.10320E-01
 -0.13986E-02
  0.52978E-02
  0.26285E-02
 -0.37988E-02
  0.46949E-02
 -0.24920E-03
  0.57266E-02
  0.36915E-02
 -0.26746E-01
  0.66165E-02
  0.32975E-02
  0.12883E-01
  0.99686E-02
  0.72291E-02
  0.74320E-02
  0.64279E-02
  0.73279E-02
  0.50096E-02
  0.86764E-02
  0.68583E-02
  0.53908E-02
 -0.97279E-03
 -0.31833E-01
 -0.95096E-03
 -0.62097E-02
 -0.52435E-02
  0.54506E-02
 -0.50319E-02
 -0.88804E-02
 -0.91253E-03
 -0.76215E-04
  0.20973E-01
  0.22762E-01
  0.75924E-02
  0.27521E-02
  0.20270E-01
  0.78845E-02
  0.22823E-03
 -0.33247E-01
 -0.15371E-01
  0.71164E-03
 -0.63107E-02
  0.56756E-02
 -0.12492E-02
  0.21471E-02
 -0.96273E-03
 -0.44160E-02
  0.12891E-01
 -0.13139E-01
  0.26767E-02
  0.22394E-02
  0.83705E-02
 -0.25149E-01
  0.42524E-02
 -0.13066E-01
 -0.34831E-01
 -0.23888E-02
  0.20998E-02
  0.44796E-02
  0.92001E-02
  0.80452E-03
  0.32437E-03
 -0.26782E-02
 -0.75829E-02
 -0.31209E-01
  0.23677E-02
 -0.11941E-01
  0.20907E-02
  0.22200E-02
 -0.52210E-03
  0.78575E-02
 -0.29536E-01
  0.90556E-02
  0.48370E-02
 -0.32532E-01
  0.20660E-03
  0.57629E-02
  0.10533E-02
 -0.75162E-02
 -0.41291E-02
  0.12888E-01
  0.26190E-02
 -0.44145E-01
  0.16234E-01
  0.10053E-01
  0.89058E-02
  0.14074E-01
  0.93155E-02
 -0.34082E-02
 -0.90726E-02
  0.13734E-01
 -0.34283E-02
  0.26284E-02
  0.10515E-01
  0.11679E-01
  0.93491E-02
 -0.29500E-02
 -0.21869E-01
 -0.14131E-01
  0.33668E-02
 -0.92943E-02
 -0.20970E-01
  0.10207E-01
 -0.19763E-01
  0.75622E-03
  0.97319E-02
 -0.74390E-03
  0.12711E-02
 -0.71933E-02
 -0.12905E-02
  0.10950E-01
  0.22863E-01
 -0.27547E-01
  0.14756E-02
  0.45772E-02
 -0.10527E-02
 -0.40068E-01
 -0.19664E-01
 -0.68496E-02
 -0.22722E-02
 -0.22540E-02
 -0.88380E-03
  0.58819E-02
  0.74853E-02
  0.15674E-02
 -0.20032E-01
 -0.10106E-01
 -0.27720E-01
  0.50609E-02
 -0.15926E-01
  0.42352E-02
  0.10149E-01
  0.90766E-02
  0.67453E-03
 -0.72588E-02
 -0.13908E-01
 -0.76560E-03
  0.39120E-02
  0.85727E-02
 -0.14753E-01
 -0.12612E-01
 -0.45331E-01
 -0.32993E-01
  0.10998E-01
  0.76440E-02
  0.30371E-02
  0.22983E-02
 -0.17304E-02
  
 VECTORS vector_U float