# vtk DataFile Version 2.0
Unstructured Grid UFVM-ECOMOD
ASCII
DATASET UNSTRUCTURED_GRID
 POINTS         2061  float
  0.00000E+00  0.00000E+00  0.00000E+00
  0.40000E+01  0.00000E+00  0.00000E+00
  0.40000E+01  0.20000E+01  0.00000E+00
  0.00000E+00  0.20000E+01  0.00000E+00
  0.11233E+01  0.11389E+01  0.00000E+00
  0.77667E+00  0.12509E+01  0.00000E+00
  0.11233E+01  0.13630E+01  0.00000E+00
  0.72667E+00  0.84537E+00  0.00000E+00
  0.72525E+00  0.78665E+00  0.00000E+00
  0.72110E+00  0.73162E+00  0.00000E+00
  0.71447E+00  0.68374E+00  0.00000E+00
  0.70578E+00  0.64602E+00  0.00000E+00
  0.69557E+00  0.62082E+00  0.00000E+00
  0.68449E+00  0.60973E+00  0.00000E+00
  0.67323E+00  0.61344E+00  0.00000E+00
  0.66251E+00  0.63173E+00  0.00000E+00
  0.65298E+00  0.66344E+00  0.00000E+00
  0.64526E+00  0.70659E+00  0.00000E+00
  0.63983E+00  0.75845E+00  0.00000E+00
  0.63702E+00  0.81578E+00  0.00000E+00
  0.63702E+00  0.87496E+00  0.00000E+00
  0.63983E+00  0.93229E+00  0.00000E+00
  0.64526E+00  0.98415E+00  0.00000E+00
  0.65298E+00  0.10273E+01  0.00000E+00
  0.66251E+00  0.10590E+01  0.00000E+00
  0.67323E+00  0.10773E+01  0.00000E+00
  0.68449E+00  0.10810E+01  0.00000E+00
  0.69557E+00  0.10699E+01  0.00000E+00
  0.70578E+00  0.10447E+01  0.00000E+00
  0.71447E+00  0.10070E+01  0.00000E+00
  0.72110E+00  0.95912E+00  0.00000E+00
  0.72525E+00  0.90409E+00  0.00000E+00
  0.10000E+00  0.00000E+00  0.00000E+00
  0.20000E+00  0.00000E+00  0.00000E+00
  0.30000E+00  0.00000E+00  0.00000E+00
  0.40000E+00  0.00000E+00  0.00000E+00
  0.50000E+00  0.00000E+00  0.00000E+00
  0.60000E+00  0.00000E+00  0.00000E+00
  0.70000E+00  0.00000E+00  0.00000E+00
  0.80000E+00  0.00000E+00  0.00000E+00
  0.90000E+00  0.00000E+00  0.00000E+00
  0.10000E+01  0.00000E+00  0.00000E+00
  0.11000E+01  0.00000E+00  0.00000E+00
  0.12000E+01  0.00000E+00  0.00000E+00
  0.13000E+01  0.00000E+00  0.00000E+00
  0.14000E+01  0.00000E+00  0.00000E+00
  0.15000E+01  0.00000E+00  0.00000E+00
  0.16000E+01  0.00000E+00  0.00000E+00
  0.17000E+01  0.00000E+00  0.00000E+00
  0.18000E+01  0.00000E+00  0.00000E+00
  0.19000E+01  0.00000E+00  0.00000E+00
  0.20000E+01  0.00000E+00  0.00000E+00
  0.21000E+01  0.00000E+00  0.00000E+00
  0.22000E+01  0.00000E+00  0.00000E+00
  0.23000E+01  0.00000E+00  0.00000E+00
  0.24000E+01  0.00000E+00  0.00000E+00
  0.25000E+01  0.00000E+00  0.00000E+00
  0.26000E+01  0.00000E+00  0.00000E+00
  0.27000E+01  0.00000E+00  0.00000E+00
  0.28000E+01  0.00000E+00  0.00000E+00
  0.29000E+01  0.00000E+00  0.00000E+00
  0.30000E+01  0.00000E+00  0.00000E+00
  0.31000E+01  0.00000E+00  0.00000E+00
  0.32000E+01  0.00000E+00  0.00000E+00
  0.33000E+01  0.00000E+00  0.00000E+00
  0.34000E+01  0.00000E+00  0.00000E+00
  0.35000E+01  0.00000E+00  0.00000E+00
  0.36000E+01  0.00000E+00  0.00000E+00
  0.37000E+01  0.00000E+00  0.00000E+00
  0.38000E+01  0.00000E+00  0.00000E+00
  0.39000E+01  0.00000E+00  0.00000E+00
  0.40000E+01  0.10000E+00  0.00000E+00
  0.40000E+01  0.20000E+00  0.00000E+00
  0.40000E+01  0.30000E+00  0.00000E+00
  0.40000E+01  0.40000E+00  0.00000E+00
  0.40000E+01  0.50000E+00  0.00000E+00
  0.40000E+01  0.60000E+00  0.00000E+00
  0.40000E+01  0.70000E+00  0.00000E+00
  0.40000E+01  0.80000E+00  0.00000E+00
  0.40000E+01  0.90000E+00  0.00000E+00
  0.40000E+01  0.10000E+01  0.00000E+00
  0.40000E+01  0.11000E+01  0.00000E+00
  0.40000E+01  0.12000E+01  0.00000E+00
  0.40000E+01  0.13000E+01  0.00000E+00
  0.40000E+01  0.14000E+01  0.00000E+00
  0.40000E+01  0.15000E+01  0.00000E+00
  0.40000E+01  0.16000E+01  0.00000E+00
  0.40000E+01  0.17000E+01  0.00000E+00
  0.40000E+01  0.18000E+01  0.00000E+00
  0.40000E+01  0.19000E+01  0.00000E+00
  0.39000E+01  0.20000E+01  0.00000E+00
  0.38000E+01  0.20000E+01  0.00000E+00
  0.37000E+01  0.20000E+01  0.00000E+00
  0.36000E+01  0.20000E+01  0.00000E+00
  0.35000E+01  0.20000E+01  0.00000E+00
  0.34000E+01  0.20000E+01  0.00000E+00
  0.33000E+01  0.20000E+01  0.00000E+00
  0.32000E+01  0.20000E+01  0.00000E+00
  0.31000E+01  0.20000E+01  0.00000E+00
  0.30000E+01  0.20000E+01  0.00000E+00
  0.29000E+01  0.20000E+01  0.00000E+00
  0.28000E+01  0.20000E+01  0.00000E+00
  0.27000E+01  0.20000E+01  0.00000E+00
  0.26000E+01  0.20000E+01  0.00000E+00
  0.25000E+01  0.20000E+01  0.00000E+00
  0.24000E+01  0.20000E+01  0.00000E+00
  0.23000E+01  0.20000E+01  0.00000E+00
  0.22000E+01  0.20000E+01  0.00000E+00
  0.21000E+01  0.20000E+01  0.00000E+00
  0.20000E+01  0.20000E+01  0.00000E+00
  0.19000E+01  0.20000E+01  0.00000E+00
  0.18000E+01  0.20000E+01  0.00000E+00
  0.17000E+01  0.20000E+01  0.00000E+00
  0.16000E+01  0.20000E+01  0.00000E+00
  0.15000E+01  0.20000E+01  0.00000E+00
  0.14000E+01  0.20000E+01  0.00000E+00
  0.13000E+01  0.20000E+01  0.00000E+00
  0.12000E+01  0.20000E+01  0.00000E+00
  0.11000E+01  0.20000E+01  0.00000E+00
  0.10000E+01  0.20000E+01  0.00000E+00
  0.90000E+00  0.20000E+01  0.00000E+00
  0.80000E+00  0.20000E+01  0.00000E+00
  0.70000E+00  0.20000E+01  0.00000E+00
  0.60000E+00  0.20000E+01  0.00000E+00
  0.50000E+00  0.20000E+01  0.00000E+00
  0.40000E+00  0.20000E+01  0.00000E+00
  0.30000E+00  0.20000E+01  0.00000E+00
  0.20000E+00  0.20000E+01  0.00000E+00
  0.10000E+00  0.20000E+01  0.00000E+00
  0.00000E+00  0.19000E+01  0.00000E+00
  0.00000E+00  0.18000E+01  0.00000E+00
  0.00000E+00  0.17000E+01  0.00000E+00
  0.00000E+00  0.16000E+01  0.00000E+00
  0.00000E+00  0.15000E+01  0.00000E+00
  0.00000E+00  0.14000E+01  0.00000E+00
  0.00000E+00  0.13000E+01  0.00000E+00
  0.00000E+00  0.12000E+01  0.00000E+00
  0.00000E+00  0.11000E+01  0.00000E+00
  0.00000E+00  0.10000E+01  0.00000E+00
  0.00000E+00  0.90000E+00  0.00000E+00
  0.00000E+00  0.80000E+00  0.00000E+00
  0.00000E+00  0.70000E+00  0.00000E+00
  0.00000E+00  0.60000E+00  0.00000E+00
  0.00000E+00  0.50000E+00  0.00000E+00
  0.00000E+00  0.40000E+00  0.00000E+00
  0.00000E+00  0.30000E+00  0.00000E+00
  0.00000E+00  0.20000E+00  0.00000E+00
  0.00000E+00  0.10000E+00  0.00000E+00
  0.11002E+01  0.11464E+01  0.00000E+00
  0.10771E+01  0.11538E+01  0.00000E+00
  0.10540E+01  0.11613E+01  0.00000E+00
  0.10309E+01  0.11688E+01  0.00000E+00
  0.10078E+01  0.11762E+01  0.00000E+00
  0.98467E+00  0.11837E+01  0.00000E+00
  0.96156E+00  0.11912E+01  0.00000E+00
  0.93844E+00  0.11986E+01  0.00000E+00
  0.91533E+00  0.12061E+01  0.00000E+00
  0.89222E+00  0.12136E+01  0.00000E+00
  0.86911E+00  0.12210E+01  0.00000E+00
  0.84600E+00  0.12285E+01  0.00000E+00
  0.82289E+00  0.12360E+01  0.00000E+00
  0.79978E+00  0.12435E+01  0.00000E+00
  0.79978E+00  0.12584E+01  0.00000E+00
  0.82289E+00  0.12659E+01  0.00000E+00
  0.84600E+00  0.12733E+01  0.00000E+00
  0.86911E+00  0.12808E+01  0.00000E+00
  0.89222E+00  0.12883E+01  0.00000E+00
  0.91533E+00  0.12957E+01  0.00000E+00
  0.93844E+00  0.13032E+01  0.00000E+00
  0.96156E+00  0.13107E+01  0.00000E+00
  0.98467E+00  0.13181E+01  0.00000E+00
  0.10078E+01  0.13256E+01  0.00000E+00
  0.10309E+01  0.13331E+01  0.00000E+00
  0.10540E+01  0.13406E+01  0.00000E+00
  0.10771E+01  0.13480E+01  0.00000E+00
  0.11002E+01  0.13555E+01  0.00000E+00
  0.11233E+01  0.13381E+01  0.00000E+00
  0.11233E+01  0.13132E+01  0.00000E+00
  0.11233E+01  0.12883E+01  0.00000E+00
  0.11233E+01  0.12634E+01  0.00000E+00
  0.11233E+01  0.12385E+01  0.00000E+00
  0.11233E+01  0.12136E+01  0.00000E+00
  0.11233E+01  0.11887E+01  0.00000E+00
  0.11233E+01  0.11638E+01  0.00000E+00
  0.72596E+00  0.81601E+00  0.00000E+00
  0.72318E+00  0.75914E+00  0.00000E+00
  0.64254E+00  0.73252E+00  0.00000E+00
  0.63842E+00  0.78711E+00  0.00000E+00
  0.63702E+00  0.84537E+00  0.00000E+00
  0.63842E+00  0.90363E+00  0.00000E+00
  0.64254E+00  0.95822E+00  0.00000E+00
  0.72318E+00  0.93160E+00  0.00000E+00
  0.72596E+00  0.87473E+00  0.00000E+00
  0.74623E+00  0.70374E+00  0.00000E+00
  0.11476E+01  0.11795E+01  0.00000E+00
  0.11428E+01  0.13264E+01  0.00000E+00
  0.20501E+01  0.84770E-01  0.00000E+00
  0.20513E+01  0.19161E+01  0.00000E+00
  0.75086E+00  0.83082E+00  0.00000E+00
  0.10802E+01  0.11281E+01  0.00000E+00
  0.29510E+01  0.19171E+01  0.00000E+00
  0.25540E+01  0.78210E-01  0.00000E+00
  0.24497E+01  0.19139E+01  0.00000E+00
  0.29535E+01  0.84730E-01  0.00000E+00
  0.16545E+01  0.96330E-01  0.00000E+00
  0.39091E+01  0.10592E+01  0.00000E+00
  0.98745E+00  0.11609E+01  0.00000E+00
  0.71788E+00  0.62645E+00  0.00000E+00
  0.74597E+00  0.94716E+00  0.00000E+00
  0.80605E+00  0.12789E+01  0.00000E+00
  0.92000E+00  0.13196E+01  0.00000E+00
  0.10129E+01  0.13491E+01  0.00000E+00
  0.16502E+01  0.19155E+01  0.00000E+00
  0.12478E+01  0.82260E-01  0.00000E+00
  0.63816E+00  0.63969E+00  0.00000E+00
  0.61877E+00  0.74255E+00  0.00000E+00
  0.61437E+00  0.82908E+00  0.00000E+00
  0.63522E+00  0.10499E+01  0.00000E+00
  0.61620E+00  0.95001E+00  0.00000E+00
  0.33500E+01  0.81140E-01  0.00000E+00
  0.33444E+01  0.19176E+01  0.00000E+00
  0.89845E+00  0.11909E+01  0.00000E+00
  0.93200E-01  0.15508E+01  0.00000E+00
  0.69847E+00  0.10839E+01  0.00000E+00
  0.68876E+00  0.10934E+01  0.00000E+00
  0.39109E+01  0.63916E+00  0.00000E+00
  0.70286E+00  0.10972E+01  0.00000E+00
  0.69242E+00  0.11076E+01  0.00000E+00
  0.39066E+01  0.13469E+01  0.00000E+00
  0.54882E+00  0.19235E+01  0.00000E+00
  0.11450E+01  0.12519E+01  0.00000E+00
  0.10822E+01  0.13717E+01  0.00000E+00
  0.82801E+00  0.12139E+01  0.00000E+00
  0.13560E+01  0.19166E+01  0.00000E+00
  0.94081E+00  0.73780E-01  0.00000E+00
  0.70738E+00  0.11117E+01  0.00000E+00
  0.69616E+00  0.11233E+01  0.00000E+00
  0.67954E+00  0.11181E+01  0.00000E+00
  0.68347E+00  0.11365E+01  0.00000E+00
  0.66340E+00  0.11298E+01  0.00000E+00
  0.66907E+00  0.11513E+01  0.00000E+00
  0.64512E+00  0.11441E+01  0.00000E+00
  0.74001E+00  0.10310E+01  0.00000E+00
  0.44749E+00  0.82430E-01  0.00000E+00
  0.67511E+00  0.60138E+00  0.00000E+00
  0.67440E-01  0.43983E+00  0.00000E+00
  0.85004E+00  0.19236E+01  0.00000E+00
[...]
 POINT_DATA         2061
  
 SCALARS WL      float 1
 LOOKUP_TABLE default
  0.38651E-01
 -0.49728E-02
 -0.19001E+00
  0.33455E-01
 -0.43420E-01
  0.34533E-01
 -0.47485E-01
 -0.56375E-01
 -0.53276E-01
 -0.50803E-01
 -0.50912E-01
 -0.52204E-01
 -0.53515E-01
 -0.47749E-01
 -0.20783E-01
  0.15524E-01
  0.40435E-01
  0.50563E-01
  0.56605E-01
  0.59333E-01
  0.59299E-01
  0.57406E-01
  0.52261E-01
  0.43291E-01
  0.20700E-01
 -0.23644E-01
 -0.46878E-01
 -0.49356E-01
 -0.49548E-01
 -0.50468E-01
 -0.52682E-01
 -0.55773E-01
  0.38370E-01
  0.37469E-01
  0.35762E-01
  0.33111E-01
  0.29336E-01
  0.23894E-01
  0.16557E-01
  0.85551E-02
 -0.42883E-03
 -0.95640E-02
 -0.18477E-01
 -0.26130E-01
 -0.31865E-01
 -0.33777E-01
 -0.29398E-01
 -0.19529E-01
 -0.11440E-01
 -0.89035E-02
 -0.87917E-02
 -0.84290E-02
 -0.69081E-02
 -0.44096E-02
 -0.10944E-02
  0.24599E-02
  0.36524E-02
 -0.57758E-02
 -0.60035E-01
 -0.21510E+00
 -0.79786E+00
 -0.86376E+00
 -0.33459E+00
 -0.26548E+00
 -0.37237E+00
 -0.18236E+00
 -0.11702E+00
 -0.59440E-01
 -0.33078E-01
 -0.15516E-01
 -0.74472E-02
  0.00000E+00
  0.00000E+00
  0.00000E+00
  0.00000E+00
  0.00000E+00
  0.00000E+00
  0.00000E+00
  0.00000E+00
  0.00000E+00
  0.00000E+00
  0.00000E+00
  0.00000E+00
  0.00000E+00
  0.00000E+00
  0.00000E+00
  0.00000E+00
  0.00000E+00
  0.00000E+00
  0.00000E+00
 -0.26281E+00
 -0.44898E+00
 -0.52039E+00
 -0.47126E+00
 -0.35743E+00
 -0.35877E+00
 -0.38456E+00
 -0.36088E+00
 -0.10961E+01
 -0.11157E+01
 -0.10057E+01
 -0.87297E+00
 -0.84826E+00
 -0.21875E+01
 -0.18813E+01
 -0.33985E+00
 -0.93624E+00
 -0.90938E+00
 -0.27094E+00
 -0.26045E+00
 -0.24389E+00
 -0.26208E+00
 -0.26626E+00
 -0.26926E+00
 -0.26659E+00
 -0.26202E+00
 -0.29057E+00
 -0.41513E+00
 -0.21940E+00
 -0.52169E-01
  0.11776E-01
  0.16399E-01
  0.20338E-01
  0.23433E-01
  0.26113E-01
  0.28321E-01
  0.30137E-01
  0.31641E-01
  0.32789E-01
  0.33707E-01
  0.34229E-01
  0.35032E-01
  0.36094E-01
  0.37488E-01
  0.39026E-01
  0.40591E-01
  0.42504E-01
  0.43971E-01
  0.45222E-01
  0.45901E-01
  0.45955E-01
  0.45411E-01
  0.44401E-01
  0.43034E-01
  0.41704E-01
  0.40510E-01
  0.39521E-01
  0.38941E-01
 -0.50049E-01
 -0.57797E-01
 -0.63489E-01
 -0.63534E-01
 -0.61052E-01
 -0.55581E-01
 -0.50636E-01
 -0.41018E-01
 -0.31425E-01
 -0.18588E-01
 -0.69464E-02
  0.32066E-02
  0.17121E-01
  0.30425E-01
  0.30305E-01
  0.25341E-01
  0.21483E-01
  0.19454E-01
  0.16761E-01
  0.14360E-01
  0.11940E-01
  0.87365E-02
  0.61188E-02
  0.29583E-02
 -0.49875E-03
 -0.51665E-02
 -0.12057E-01
 -0.20710E-01
 -0.63723E-01
 -0.64118E-01
 -0.63934E-01
 -0.61695E-01
 -0.57613E-01
 -0.52935E-01
 -0.48130E-01
 -0.44403E-01
 -0.55039E-01
 -0.51627E-01
  0.54303E-01
  0.58353E-01
  0.59596E-01
  0.58609E-01
  0.55584E-01
 -0.54222E-01
 -0.56663E-01
 -0.50664E-01
 -0.46526E-01
 -0.63821E-01
 -0.76879E-02
 -0.33632E+00
 -0.55914E-01
 -0.56446E-01
 -0.42641E+00
 -0.57937E-01
 -0.11243E+01
 -0.51550E+00
 -0.14829E-01
 -0.85487E+00
 -0.58389E-01
 -0.52623E-01
 -0.53448E-01
  0.26907E-01
  0.13546E-01
  0.15995E-02
 -0.31122E+00
 -0.29676E-01
  0.31530E-01
  0.55439E-01
  0.59399E-01
  0.37592E-01
  0.56386E-01
 -0.34555E+00
 -0.34261E+00
 -0.26077E-01
  0.36224E-01
 -0.49033E-01
 -0.42050E-01
 -0.61964E+00
 -0.45603E-01
 -0.31056E-01
 -0.34065E+01
  0.24948E-01
 -0.60813E-01
 -0.15399E-01
  0.81560E-02
 -0.35598E+00
 -0.46832E-02
 -0.36367E-01
 -0.20144E-01
 -0.10603E-01
 -0.39552E-02
  0.66389E-02
  0.88534E-02
  0.18079E-01
 -0.49735E-01
  0.31449E-01
 -0.29382E-01
  0.42120E-01
  0.14347E-01
  0.41524E-01
 -0.25183E-01
  0.45871E-01
 -0.56899E-01
 -0.51952E+00
 -0.39199E-01
 -0.27173E-01
 -0.40086E-01
 -0.52759E-01
 -0.26480E-01
 -0.38009E-01
 -0.14066E-01
  0.58917E-01
 -0.56467E-01
 -0.39782E+00
 -0.51601E-01
  0.11784E-01
 -0.39181E+00
  0.45744E-01
 -0.36637E+00
  0.29414E-01
 -0.32575E-01
 -0.87179E-02
 -0.22622E-02
 -0.14999E+01
 -0.11870E+01
 -0.19432E+00
 -0.30502E+00
 -0.49935E+00
 -0.56733E+00
 -0.46880E-01
 -0.64467E-01
  0.20497E-01
  0.75047E-02
  0.39856E-01
 -0.11938E-01
 -0.18989E-02
 -0.49193E-01
  0.10554E-02
 -0.85994E-02
  0.34194E-01
  0.93352E-02
  0.65050E-02
  0.18243E-01
  0.24920E-01
  0.24207E-01
  0.29320E-01
  0.28171E-01
  0.32465E-01
  0.30802E-01
  0.34160E-01
  0.32530E-01
  0.36445E-01
  0.29699E-01
  0.31261E-01
  0.28935E-01
  0.30168E-01
  0.28163E-01
  0.29247E-01
  0.27250E-01
  0.32578E-01
  0.37050E-01
  0.39740E-01
  0.28202E-01
  0.26051E-01
  0.26926E-01
  0.29074E-01
  0.24843E-01
  0.39489E-01
  0.42177E-01
  0.23840E-01
  0.22574E-01
  0.21439E-01
  0.19989E-01
  0.18597E-01
  0.17082E-01
  0.15254E-01
  0.13728E-01
  0.10905E-01
  0.98069E-02
  0.64987E-02
  0.54568E-02
  0.13241E-02
  0.21360E-01
  0.27650E-01
  0.29769E-01
  0.48980E-03
 -0.52266E-02
  0.41372E-01
  0.43713E-01
  0.45151E-01
  0.45998E-01
  0.47942E-01
  0.48052E-01
  0.50199E-01
  0.49554E-01
  0.52061E-01
  0.50495E-01
  0.52445E-01
 -0.49972E-02
 -0.11777E-01
 -0.10975E-01
 -0.21065E-01
 -0.20862E-01
 -0.63542E-01
 -0.95832E+00
 -0.10169E+01
 -0.83932E+00
 -0.13867E+01
 -0.99329E+00
 -0.12991E+01
 -0.55007E+00
 -0.53437E+00
 -0.98566E-01
 -0.89592E+00
 -0.29998E+00
 -0.75013E+00
 -0.10014E+00
 -0.15276E+00
 -0.56256E-01
 -0.14505E+00
 -0.57244E-01
 -0.24630E+00
 -0.80964E-01
 -0.22034E+00
 -0.79135E-01
 -0.20955E+00
 -0.16554E+00
 -0.24585E+00
 -0.15830E+00
 -0.15928E+00
 -0.10110E+00
 -0.53109E-01
 -0.21156E+00
 -0.68451E+00
 -0.33134E+00
 -0.11129E+01
 -0.58823E+00
 -0.41935E+00
 -0.10465E+01
 -0.41055E+00
 -0.60541E-01
 -0.67579E+00
 -0.33406E+00
 -0.37161E+00
 -0.14557E+01
 -0.40753E+00
 -0.40759E+00
 -0.44933E+00
 -0.38688E+00
 -0.37401E+00
 -0.36699E+00
 -0.28106E+00
 -0.35522E+00
 -0.34228E+00
 -0.68678E+00
 -0.34316E+00
 -0.14596E+01
 -0.65116E+00
 -0.37627E+00
 -0.11945E+01
 -0.43781E+00
 -0.54001E+00
 -0.46351E+00
 -0.39340E+00
 -0.35528E+00
 -0.57527E+00
 -0.47909E+00
 -0.30030E+00
 -0.45154E+00
 -0.84059E+00
 -0.10647E+01
 -0.12617E+01
 -0.78022E+00
 -0.35070E+00
 -0.11198E+01
 -0.84924E+00
 -0.82097E+00
 -0.95731E+00
 -0.69285E+00
 -0.46009E-01
 -0.37517E+00
 -0.97210E+00
 -0.52286E+00
 -0.46123E+00
 -0.47245E+00
 -0.83708E+00
 -0.26796E+00
 -0.28664E+00
 -0.45986E+00
 -0.47169E+00
 -0.35399E+00
 -0.47426E+00
 -0.49873E+00
 -0.79340E-01
 -0.28907E+00
 -0.88616E+00
 -0.14140E+01
 -0.76195E+00
 -0.59383E+00
 -0.38343E+00
 -0.10527E+01
 -0.27658E+00
 -0.20340E+01
 -0.41471E+00
 -0.79303E+00
 -0.67271E+00
 -0.33207E+00
 -0.32477E+00
 -0.76992E+00
 -0.38357E+00
 -0.13251E+01
  0.24084E-01
  0.50665E-01
  0.52156E-01
  0.50208E-01
  0.51149E-01
  0.49136E-01
  0.49292E-01
  0.47571E-01
  0.47173E-01
  0.48812E-01
  0.46077E-01
  0.45032E-01
  0.43338E-01
  0.42882E-01
  0.40486E-01
  0.40916E-01
  0.38419E-01
  0.36929E-01
  0.35019E-01
  0.32544E-01
  0.31083E-01
  0.27333E-01
  0.28886E-01
  0.21779E-01
  0.21990E-01
  0.15184E-01
  0.36651E-01
  0.13978E-01
  0.62467E-02
  0.89652E-02
 -0.34477E-03
 -0.53901E-02
 -0.11974E-01
 -0.43655E-01
 -0.23995E-01
 -0.34993E-01
 -0.48446E-02
 -0.15795E-01
 -0.24904E-01
 -0.26253E-01
 -0.37164E-01
 -0.33841E-01
 -0.45673E-01
 -0.38955E-01
 -0.44518E-01
 -0.38885E-01
 -0.42819E-01
 -0.37547E-01
 -0.42531E-01
 -0.37744E-01
 -0.44650E-01
 -0.41139E-01
 -0.50042E-01
 -0.46696E-01
 -0.56755E-01
 -0.55788E-01
 -0.62859E-01
 -0.56689E-01
 -0.62512E-01
 -0.66679E-01
 -0.52292E-01
 -0.34845E-01
 -0.58844E-01
 -0.44774E-01
 -0.52018E-01
 -0.37902E-01
 -0.44298E-01
 -0.33460E-01
 -0.29457E-01
 -0.39311E-01
 -0.34673E-01
 -0.35915E-01
 -0.42379E-01
 -0.41755E-01
 -0.19268E+00
 -0.47256E-01
 -0.23265E+00
 -0.43286E+00
 -0.53533E-01
 -0.36838E+00
 -0.45664E+00
 -0.18609E-01
 -0.37296E-01
 -0.65429E-01
 -0.66573E-01
 -0.65411E-01
 -0.63890E-01
 -0.63241E-01
 -0.58199E-01
 -0.60146E-01
 -0.50328E-01
 -0.57125E-01
 -0.48533E-01
 -0.58291E-01
 -0.63039E-01
 -0.60001E-01
 -0.63643E-01
 -0.62320E-01
 -0.63933E-01
 -0.63891E-01
 -0.63918E-01
 -0.63905E-01
 -0.63309E-01
 -0.63619E-01
 -0.62862E-01
 -0.62019E-01
 -0.63246E-01
 -0.61525E-01
 -0.60142E-01
 -0.59695E-01
 -0.57923E-01
 -0.58761E-01
 -0.56212E-01
 -0.52715E-01
 -0.55491E-01
 -0.53631E-01
 -0.56940E-01
 -0.57523E-01
 -0.70045E-02
 -0.20389E+00
 -0.25652E+00
 -0.39813E+00
 -0.26737E+00
 -0.14397E+00
 -0.22623E+00
 -0.50317E-01
 -0.41150E-01
 -0.46295E-01
 -0.56588E-02
  0.93231E-02
 -0.61146E-01
 -0.59424E-01
 -0.60800E-01
 -0.72430E-01
 -0.25926E+00
  0.28305E-01
  0.30310E-01
  0.31774E-01
 -0.34088E-03
 -0.41181E-01
  0.44428E-01
 -0.96919E+00
 -0.51474E+00
 -0.13248E+01
 -0.38887E-01
 -0.10347E+00
 -0.25357E+00
 -0.89868E+00
 -0.42716E+00
 -0.36833E+00
  0.26231E-01
 -0.62803E+00
 -0.41505E+00
 -0.61752E+00
 -0.77606E-01
 -0.38785E+00
 -0.46327E+00
 -0.38591E+00
 -0.38492E+00
 -0.46967E+00
 -0.42374E+00
 -0.51277E-01
 -0.64062E-01
 -0.33899E+00
 -0.52952E+00
 -0.37380E+00
 -0.13102E+00
 -0.21053E+00
 -0.56870E-01
 -0.16723E+00
 -0.89105E+00
 -0.28022E+00
 -0.16296E+00
 -0.24097E+00
  0.17215E-01
  0.12546E-01
 -0.56696E-01
  0.44292E-01
 -0.59964E-01
  0.39009E-01
 -0.97258E+00
 -0.13324E+01
 -0.58224E+00
 -0.12421E+01
 -0.35624E+00
 -0.20994E+00
 -0.98548E-01
 -0.25136E+00
 -0.18781E+00
 -0.34968E+00
 -0.30869E+00
 -0.52990E+00
 -0.90114E+00
 -0.55375E+00
  0.40684E-01
  0.38561E-01
 -0.38874E-01
 -0.47380E-01
  0.24507E-02
 -0.61674E-01
 -0.64427E-01
  0.44314E-01
 -0.61963E-01
 -0.63756E-01
 -0.35483E+00
 -0.56283E+00
 -0.14284E+01
  0.53567E-01
  0.32140E-01
 -0.36557E-01
 -0.73441E-01
 -0.61554E+00
  0.39395E-01
  0.15116E-01
 -0.63467E-01
 -0.62897E-01
 -0.66127E+00
  0.47702E-01
  0.49237E-01
 -0.54169E+00
  0.50267E-01
  0.26508E-01
 -0.67569E+00
 -0.38264E+00
 -0.59197E-01
 -0.60346E-01
  0.28987E-01
  0.26898E-01
 -0.53041E-01
 -0.51135E-01
 -0.51999E-01
 -0.49711E-01
 -0.49149E-01
 -0.45465E-01
  0.87308E-02
  0.20828E-01
 -0.61798E-02
 -0.16084E-01
 -0.83446E+00
 -0.32603E+00
 -0.11908E+01
 -0.62967E+00
 -0.22813E+00
  0.54260E-01
  0.33652E-01
 -0.42663E-01
 -0.54871E-01
 -0.37001E+00
 -0.41745E+00
 -0.36402E-01
 -0.12046E-01
 -0.63283E-01
 -0.65268E-01
 -0.53822E+00
 -0.30231E+00
 -0.14854E+01
 -0.14467E+01
 -0.16532E+01
 -0.50020E+00
 -0.48920E+00
 -0.51021E+00
 -0.54647E+00
 -0.68793E+00
 -0.56675E+00
 -0.71852E+00
 -0.56338E+00
 -0.67198E+00
 -0.74098E+00
 -0.59911E+00
 -0.65859E+00
 -0.59634E+00
 -0.54906E+00
 -0.60331E+00
 -0.53558E+00
 -0.51031E-01
 -0.51889E-01
 -0.66545E-01
 -0.36906E+00
 -0.23335E+00
 -0.58190E-01
 -0.34602E+00
 -0.16581E+01
 -0.69226E+00
 -0.62785E+00
 -0.18200E+01
 -0.54910E+00
 -0.69520E-01
 -0.31742E+00
 -0.27794E+00
 -0.45959E+00
 -0.36391E-01
  0.40004E-01
 -0.63950E-01
 -0.77095E-01
 -0.51902E-02
 -0.39512E+00
 -0.49184E+00
 -0.60189E-01
 -0.59454E-01
 -0.62239E+00
 -0.65977E+00
 -0.93614E+00
 -0.61525E-01
 -0.60694E-01
 -0.61440E-01
 -0.60099E-01
 -0.60409E-01
 -0.58486E-01
 -0.58330E-01
 -0.56414E-01
 -0.41926E-01
 -0.47622E-01
 -0.35442E-01
 -0.85361E+00
 -0.29330E+00
  0.48538E-01
 -0.62048E-01
 -0.65819E-01
 -0.62451E-01
  0.18273E-01
  0.27311E-01
  0.31371E-01
 -0.73377E-01
 -0.82551E-01
 -0.30093E+00
 -0.68151E+00
 -0.77464E+00
 -0.47714E-01
 -0.31832E+00
  0.33821E-01
  0.32423E-01
  0.35369E-01
 -0.41855E+00
 -0.73970E+00
 -0.82557E+00
 -0.56111E+00
 -0.14362E+01
 -0.90255E+00
 -0.68149E+00
 -0.76522E-01
 -0.37252E-01
 -0.13765E-01
 -0.59574E-01
 -0.63397E+00
 -0.40613E+00
 -0.58534E-01
 -0.44640E-01
 -0.60480E+00
 -0.66770E-01
  0.27753E-01
 -0.15509E+01
 -0.58044E-01
 -0.10546E+01
  0.36829E-01
 -0.44670E+00
 -0.81737E-01
 -0.41486E+00
 -0.50845E-01
 -0.53019E-01
 -0.69213E+00
 -0.31231E+00
 -0.31789E+00
 -0.40600E+00
 -0.43297E+00
 -0.25830E+00
 -0.26356E+00
 -0.61572E-01
 -0.48978E+00
 -0.22423E+00
  0.25662E-01
  0.22781E-01
  0.25426E-01
  0.37213E-01
  0.44495E-01
  0.43167E-01
  0.48049E-01
  0.46168E-01
 -0.41441E-02
 -0.47007E-01
 -0.99207E-02
 -0.55861E-01
 -0.54999E-01
 -0.74296E-01
  0.13328E-01
  0.18871E-01
 -0.66699E-01
  0.34933E-01
  0.39895E-01
 -0.48813E+00
 -0.49091E+00
 -0.28234E+00
 -0.46736E+00
 -0.85811E-01
 -0.64237E-01
  0.12586E-01
 -0.55474E-01
 -0.54288E-01
 -0.46423E-01
 -0.62297E-01
 -0.61804E-01
 -0.57617E-01
 -0.10339E+01
 -0.54531E-01
 -0.54429E-01
 -0.81309E+00
 -0.60018E-01
 -0.54214E-01
 -0.64397E-01
 -0.65142E+00
 -0.39432E-01
 -0.15622E+01
 -0.17034E+01
 -0.29462E+00
 -0.54393E+00
 -0.14925E+01
 -0.57184E+00
 -0.57271E-01
  0.33306E-01
 -0.71581E+00
 -0.61165E-01
 -0.21049E+00
 -0.28183E+00
  0.26722E-01
  0.24564E-01
  0.23307E-01
 -0.15925E-01
 -0.62244E+00
 -0.60545E-01
 -0.10437E+01
 -0.30593E+00
 -0.28043E+00
 -0.54795E+00
 -0.84731E+00
 -0.66302E+00
 -0.49106E-01
 -0.41296E-01
 -0.51109E-01
 -0.45273E-01
 -0.52328E-01
 -0.30391E-01
 -0.35507E-01
 -0.29596E+00
  0.44338E-01
  0.33935E-01
  0.32676E-01
 -0.31717E+00
 -0.42763E+00
 -0.64890E+00
 -0.46695E+00
 -0.31234E+00
 -0.67390E+00
 -0.63095E-02
 -0.11717E+01
 -0.10116E+01
 -0.12977E+01
 -0.41435E+00
 -0.29152E+00
 -0.37722E+00
 -0.35406E+00
 -0.74095E+00
 -0.59573E-01
 -0.19207E-01
 -0.78122E-01
 -0.71190E-01
 -0.43480E+00
 -0.96361E+00
 -0.18631E+01
 -0.85424E+00
 -0.21512E-01
 -0.17332E-01
 -0.26184E-01
  0.14637E-02
 -0.51056E-01
 -0.53312E-01
 -0.49275E-01
 -0.51513E-01
 -0.23464E-01
 -0.31083E-01
 -0.32642E-01
 -0.34208E-01
 -0.33994E-01
 -0.33828E-01
 -0.32581E-01
 -0.32044E-01
 -0.31045E-01
 -0.30309E-01
 -0.30336E-01
 -0.28615E-01
 -0.27003E-01
 -0.24500E-01
 -0.29508E-01
 -0.21968E-01
 -0.18472E-01
 -0.22331E-01
 -0.15022E-01
 -0.34211E-01
 -0.69349E-01
 -0.97161E-02
 -0.85278E-02
 -0.37234E+00
 -0.40179E+00
 -0.50904E+00
 -0.20107E-02
 -0.21680E-02
  0.48529E-03
 -0.87557E-03
 -0.54821E-01
 -0.55609E-01
 -0.53963E-01
 -0.55122E-01
 -0.28586E+00
 -0.62417E-01
 -0.43706E-01
 -0.39141E-01
  0.21860E-01
  0.20642E-01
  0.18806E-01
 -0.55669E+00
 -0.85018E-01
 -0.62052E-01
 -0.29491E-01
 -0.35569E+00
 -0.33737E+00
 -0.35697E+00
 -0.23959E+00
  0.50062E-01
  0.51906E-01
 -0.53602E-01
  0.38084E-01
  0.39281E-01
  0.41135E-01
 -0.45514E+00
 -0.52410E+00
 -0.55544E+00
 -0.63976E+00
 -0.40135E-01
 -0.30857E+00
 -0.26309E-01
  0.39999E-01
  0.46955E-01
 -0.73429E-01
 -0.65713E-01
 -0.36448E+00
  0.30869E-01
  0.36579E-01
  0.29617E-01
  0.28339E-01
  0.32386E-01
 -0.59889E+00
  0.36817E-01
 -0.13946E+00
  0.34008E-01
 -0.37960E+00
 -0.62765E+00
 -0.36953E+00
 -0.16157E+01
 -0.11025E-01
 -0.63970E-02
 -0.56849E+00
 -0.73587E+00
 -0.38271E+00
  0.30673E-02
 -0.23286E+00
 -0.73879E+00
 -0.11424E+00
 -0.11218E+01
 -0.55326E-01
 -0.55435E-01
 -0.27643E+00
 -0.29640E+00
  0.22390E-01
 -0.75025E+00
 -0.45531E+00
 -0.12989E+01
  0.17561E-01
  0.14965E-01
  0.83184E-02
 -0.50170E+00
 -0.96391E+00
 -0.63993E-01
 -0.54528E-01
 -0.54449E-01
 -0.41081E-01
 -0.39281E-01
 -0.27443E-01
 -0.31090E-01
 -0.19704E-01
 -0.15443E-01
 -0.94957E-02
 -0.68444E-02
 -0.38375E-01
 -0.32465E-01
 -0.85506E+00
 -0.41409E-01
  0.22565E-01
  0.23350E-01
  0.21748E-01
  0.24248E-01
  0.25762E-01
  0.25354E-01
  0.25654E-01
  0.25286E-01
  0.24699E-01
  0.25301E-01
  0.23374E-01
  0.23119E-01
  0.21090E-01
  0.21630E-01
  0.19241E-01
  0.18149E-01
  0.16382E-01
  0.14867E-01
  0.13221E-01
  0.11415E-01
  0.95156E-02
  0.11456E-01
  0.74524E-02
  0.51954E-02
  0.16679E-01
  0.34539E-02
  0.68747E-03
 -0.31474E+00
 -0.62267E-01
 -0.66121E-01
 -0.59032E-02
 -0.44898E-01
 -0.34443E-01
 -0.75856E+00
 -0.82510E+00
 -0.11974E-01
 -0.26117E+00
 -0.14502E-01
 -0.51898E-01
  0.30088E-01
 -0.16389E+00
 -0.53983E-01
 -0.55459E-01
  0.32894E-01
  0.37486E-01
  0.24634E-01
 -0.42911E+00
 -0.96132E+00
 -0.30569E+00
 -0.90008E+00
 -0.19712E+01
 -0.92376E+00
 -0.62782E-01
 -0.82447E+00
 -0.43577E+00
 -0.31056E+00
 -0.46098E+00
  0.15804E-02
 -0.12770E+00
 -0.36382E+00
 -0.79717E-02
 -0.79270E-02
 -0.44097E+00
 -0.48109E-01
 -0.48862E-01
 -0.30159E-02
  0.20477E-02
 -0.18304E-02
  0.70255E-02
  0.19872E-01
 -0.30449E+00
 -0.35844E+00
 -0.35522E+00
 -0.73751E+00
 -0.12918E+01
 -0.92645E-02
 -0.65507E-01
 -0.36849E-01
 -0.39744E-01
  0.26827E-01
 -0.62100E+00
 -0.76455E+00
 -0.61566E-01
 -0.62214E+00
 -0.35338E-01
 -0.51997E-01
 -0.69238E+00
  0.32996E-01
  0.40360E-01
  0.38617E-01
  0.42041E-01
  0.43060E-01
  0.43583E-01
  0.44727E-01
  0.44824E-01
  0.46089E-01
 -0.59978E+00
 -0.67630E-01
 -0.20219E-01
 -0.25781E-01
  0.17074E-01
  0.13914E-01
  0.11075E-01
  0.98756E-02
  0.64170E-02
  0.25424E-02
  0.76738E-02
  0.50089E-01
  0.51425E-01
  0.48608E-01
  0.52070E-01
  0.49441E-01
  0.51915E-01
  0.54365E-01
 -0.56671E+00
 -0.62362E+00
 -0.48894E+00
 -0.71505E+00
  0.27196E-01
  0.70412E-02
  0.54409E-01
  0.54679E-01
  0.52284E-01
  0.54211E-01
  0.56400E-01
 -0.32352E-01
 -0.31829E-01
 -0.33674E-01
 -0.43346E-01
 -0.34935E+00
 -0.13203E+01
 -0.17399E+01
  0.25893E-02
 -0.27552E-02
  0.84818E-03
 -0.74006E+00
 -0.98816E+00
 -0.57289E-01
 -0.70944E+00
  0.52318E-01
 -0.34382E-02
  0.35086E-02
  0.12705E-01
  0.14453E-01
  0.19414E-01
  0.20114E-01
  0.25041E-01
  0.25077E-01
  0.24656E-01
  0.29397E-01
 -0.63915E-01
 -0.68390E-01
 -0.62490E-01
 -0.65671E-01
 -0.46198E+00
 -0.40117E+00
 -0.42678E+00
 -0.47262E-01
 -0.40356E-01
 -0.30066E-01
 -0.52747E-01
  0.54190E-01
  0.56368E-01
  0.55744E-01
  0.57604E-01
  0.56651E-01
  0.55698E-01
  0.57496E-01
  0.58450E-01
  0.54789E-01
  0.56549E-01
  0.52531E-01
  0.58026E-01
  0.58014E-01
 -0.56623E-01
 -0.54665E-01
 -0.48209E-01
  0.18185E-01
 -0.67232E-01
 -0.49328E-01
  0.25812E-01
 -0.53567E-01
 -0.55734E-01
 -0.57253E-01
 -0.57139E-01
 -0.40374E-01
 -0.41790E-01
 -0.50171E-01
 -0.41969E-01
 -0.37347E-01
 -0.51541E-01
 -0.58196E-01
 -0.56374E+00
 -0.97727E+00
 -0.34557E+00
 -0.29672E+00
 -0.98351E+00
  0.20344E-01
 -0.11663E-01
  0.70339E-02
 -0.34099E+00
  0.23389E-01
  0.20252E-01
 -0.36111E-01
 -0.66868E-01
 -0.66425E-01
 -0.13979E-01
  0.24999E-01
  0.13226E-01
 -0.61745E-01
  0.45759E-01
  0.46802E-01
  0.43220E-01
  0.47144E-01
 -0.38998E+00
 -0.76446E-01
 -0.59836E-01
  0.33307E-02
 -0.29534E+00
 -0.41668E+00
  0.39744E-01
  0.38103E-01
 -0.51870E-01
 -0.27675E-01
 -0.30277E-01
 -0.30276E-01
 -0.32143E-01
 -0.29827E-01
 -0.29661E-01
 -0.29923E-01
 -0.33417E-01
 -0.29902E-01
 -0.26805E-01
 -0.58029E+00
 -0.51678E-01
  0.46116E-01
  0.46722E-01
  0.46007E-01
  0.45114E-01
  0.44947E-01
  0.46108E-01
  0.44036E-01
  0.43671E-01
  0.46523E-01
  0.47650E-01
  0.44715E-01
  0.42849E-01
  0.42181E-01
  0.41034E-01
  0.40673E-01
  0.39282E-01
  0.39296E-01
  0.37670E-01
  0.38013E-01
  0.36277E-01
  0.35062E-01
 -0.23905E-01
 -0.16863E+01
 -0.16758E+01
 -0.54719E-01
 -0.62240E-01
 -0.57496E-01
 -0.80899E-01
  0.84087E-02
 -0.36202E-01
 -0.10808E+00
 -0.52750E-01
 -0.49444E-01
 -0.51160E-01
 -0.33357E-02
 -0.15223E-01
  0.37743E-01
  0.43439E-01
  0.42811E-01
 -0.50546E-01
 -0.51645E-01
 -0.48062E-01
 -0.35096E+00
 -0.39992E+00
 -0.44016E+00
  0.27304E-01
  0.26156E-01
  0.40355E-01
 -0.90462E+00
 -0.56080E+00
 -0.33739E-01
 -0.28792E-01
 -0.51345E-01
 -0.53063E-01
 -0.51718E-01
 -0.54787E-01
  0.27417E-01
 -0.45349E+00
  0.37845E-01
 -0.72907E+00
 -0.25074E-01
 -0.34340E-01
 -0.34698E-01
 -0.51763E-01
 -0.41100E-01
 -0.29849E-01
 -0.34353E-01
  0.34673E-01
  0.58979E-02
  0.15148E-01
 -0.14059E-01
 -0.22771E-01
 -0.95792E-02
  0.33765E-01
  0.34855E-01
 -0.56268E-01
  0.58016E-01
 -0.56824E-01
 -0.49925E-01
 -0.53347E-01
 -0.43080E-01
 -0.29884E-01
  0.29455E-01
  0.35124E-01
 -0.55186E-01
  0.18320E-01
 -0.67434E-01
 -0.56818E-01
 -0.57035E-01
 -0.58028E+00
 -0.85687E-02
 -0.64111E-01
 -0.62938E-01
  0.31226E-01
  0.32629E-01
  0.34997E-01
  0.35252E-01
 -0.48747E-01
 -0.57588E-01
 -0.62122E-01
 -0.63497E-01
 -0.30712E-01
 -0.19307E-01
 -0.21531E-01
 -0.12707E-01
 -0.89966E-02
  0.15536E-02
 -0.91226E-02
 -0.54720E-01
  0.19608E-01
 -0.90287E+00
 -0.32787E-01
 -0.21019E-01
  0.56713E-01
  0.43196E-01
 -0.56212E-02
 -0.39942E-02
 -0.54822E+00
 -0.11282E+01
 -0.26246E+00
  0.47101E-01
 -0.49356E-01
 -0.62648E-01
 -0.81973E-01
 -0.69560E-01
 -0.50187E-01
 -0.61000E-01
  0.21619E-01
  0.12176E-01
  0.29765E-02
 -0.20787E-02
 -0.21480E+00
 -0.57076E-01
 -0.30259E-01
  0.31050E-01