# vtk DataFile Version 2.0
Unstructured Grid UFVM-ECOMOD
ASCII
DATASET UNSTRUCTURED_GRID
 POINTS         1810  float
  0.00000E+00  0.00000E+00  0.00000E+00
  0.40000E+01  0.00000E+00  0.00000E+00
  0.40000E+01  0.20000E+01  0.00000E+00
  0.00000E+00  0.20000E+01  0.00000E+00
  0.12217E+01  0.98333E+00  0.00000E+00
  0.81167E+00  0.11389E+01  0.00000E+00
  0.12217E+01  0.12944E+01  0.00000E+00
  0.10000E+00  0.00000E+00  0.00000E+00
  0.20000E+00  0.00000E+00  0.00000E+00
  0.30000E+00  0.00000E+00  0.00000E+00
  0.40000E+00  0.00000E+00  0.00000E+00
  0.50000E+00  0.00000E+00  0.00000E+00
  0.60000E+00  0.00000E+00  0.00000E+00
  0.70000E+00  0.00000E+00  0.00000E+00
  0.80000E+00  0.00000E+00  0.00000E+00
  0.90000E+00  0.00000E+00  0.00000E+00
  0.10000E+01  0.00000E+00  0.00000E+00
  0.11000E+01  0.00000E+00  0.00000E+00
  0.12000E+01  0.00000E+00  0.00000E+00
  0.13000E+01  0.00000E+00  0.00000E+00
  0.14000E+01  0.00000E+00  0.00000E+00
  0.15000E+01  0.00000E+00  0.00000E+00
  0.16000E+01  0.00000E+00  0.00000E+00
  0.17000E+01  0.00000E+00  0.00000E+00
  0.18000E+01  0.00000E+00  0.00000E+00
  0.19000E+01  0.00000E+00  0.00000E+00
  0.20000E+01  0.00000E+00  0.00000E+00
  0.21000E+01  0.00000E+00  0.00000E+00
  0.22000E+01  0.00000E+00  0.00000E+00
  0.23000E+01  0.00000E+00  0.00000E+00
  0.24000E+01  0.00000E+00  0.00000E+00
  0.25000E+01  0.00000E+00  0.00000E+00
  0.26000E+01  0.00000E+00  0.00000E+00
  0.27000E+01  0.00000E+00  0.00000E+00
  0.28000E+01  0.00000E+00  0.00000E+00
  0.29000E+01  0.00000E+00  0.00000E+00
  0.30000E+01  0.00000E+00  0.00000E+00
  0.31000E+01  0.00000E+00  0.00000E+00
  0.32000E+01  0.00000E+00  0.00000E+00
  0.33000E+01  0.00000E+00  0.00000E+00
  0.34000E+01  0.00000E+00  0.00000E+00
  0.35000E+01  0.00000E+00  0.00000E+00
  0.36000E+01  0.00000E+00  0.00000E+00
  0.37000E+01  0.00000E+00  0.00000E+00
  0.38000E+01  0.00000E+00  0.00000E+00
  0.39000E+01  0.00000E+00  0.00000E+00
  0.40000E+01  0.10000E+00  0.00000E+00
  0.40000E+01  0.20000E+00  0.00000E+00
  0.40000E+01  0.30000E+00  0.00000E+00
  0.40000E+01  0.40000E+00  0.00000E+00
  0.40000E+01  0.50000E+00  0.00000E+00
  0.40000E+01  0.60000E+00  0.00000E+00
  0.40000E+01  0.70000E+00  0.00000E+00
  0.40000E+01  0.80000E+00  0.00000E+00
  0.40000E+01  0.90000E+00  0.00000E+00
  0.40000E+01  0.10000E+01  0.00000E+00
  0.40000E+01  0.11000E+01  0.00000E+00
  0.40000E+01  0.12000E+01  0.00000E+00
  0.40000E+01  0.13000E+01  0.00000E+00
  0.40000E+01  0.14000E+01  0.00000E+00
  0.40000E+01  0.15000E+01  0.00000E+00
  0.40000E+01  0.16000E+01  0.00000E+00
  0.40000E+01  0.17000E+01  0.00000E+00
  0.40000E+01  0.18000E+01  0.00000E+00
  0.40000E+01  0.19000E+01  0.00000E+00
  0.39000E+01  0.20000E+01  0.00000E+00
  0.38000E+01  0.20000E+01  0.00000E+00
  0.37000E+01  0.20000E+01  0.00000E+00
  0.36000E+01  0.20000E+01  0.00000E+00
  0.35000E+01  0.20000E+01  0.00000E+00
  0.34000E+01  0.20000E+01  0.00000E+00
  0.33000E+01  0.20000E+01  0.00000E+00
  0.32000E+01  0.20000E+01  0.00000E+00
  0.31000E+01  0.20000E+01  0.00000E+00
  0.30000E+01  0.20000E+01  0.00000E+00
  0.29000E+01  0.20000E+01  0.00000E+00
  0.28000E+01  0.20000E+01  0.00000E+00
  0.27000E+01  0.20000E+01  0.00000E+00
  0.26000E+01  0.20000E+01  0.00000E+00
  0.25000E+01  0.20000E+01  0.00000E+00
  0.24000E+01  0.20000E+01  0.00000E+00
  0.23000E+01  0.20000E+01  0.00000E+00
  0.22000E+01  0.20000E+01  0.00000E+00
  0.21000E+01  0.20000E+01  0.00000E+00
  0.20000E+01  0.20000E+01  0.00000E+00
  0.19000E+01  0.20000E+01  0.00000E+00
  0.18000E+01  0.20000E+01  0.00000E+00
  0.17000E+01  0.20000E+01  0.00000E+00
  0.16000E+01  0.20000E+01  0.00000E+00
  0.15000E+01  0.20000E+01  0.00000E+00
  0.14000E+01  0.20000E+01  0.00000E+00
  0.13000E+01  0.20000E+01  0.00000E+00
  0.12000E+01  0.20000E+01  0.00000E+00
  0.11000E+01  0.20000E+01  0.00000E+00
  0.10000E+01  0.20000E+01  0.00000E+00
  0.90000E+00  0.20000E+01  0.00000E+00
  0.80000E+00  0.20000E+01  0.00000E+00
  0.70000E+00  0.20000E+01  0.00000E+00
  0.60000E+00  0.20000E+01  0.00000E+00
  0.50000E+00  0.20000E+01  0.00000E+00
  0.40000E+00  0.20000E+01  0.00000E+00
  0.30000E+00  0.20000E+01  0.00000E+00
  0.20000E+00  0.20000E+01  0.00000E+00
  0.10000E+00  0.20000E+01  0.00000E+00
  0.00000E+00  0.19000E+01  0.00000E+00
  0.00000E+00  0.18000E+01  0.00000E+00
  0.00000E+00  0.17000E+01  0.00000E+00
  0.00000E+00  0.16000E+01  0.00000E+00
  0.00000E+00  0.15000E+01  0.00000E+00
  0.00000E+00  0.14000E+01  0.00000E+00
  0.00000E+00  0.13000E+01  0.00000E+00
  0.00000E+00  0.12000E+01  0.00000E+00
  0.00000E+00  0.11000E+01  0.00000E+00
  0.00000E+00  0.10000E+01  0.00000E+00
  0.00000E+00  0.90000E+00  0.00000E+00
  0.00000E+00  0.80000E+00  0.00000E+00
  0.00000E+00  0.70000E+00  0.00000E+00
  0.00000E+00  0.60000E+00  0.00000E+00
  0.00000E+00  0.50000E+00  0.00000E+00
  0.00000E+00  0.40000E+00  0.00000E+00
  0.00000E+00  0.30000E+00  0.00000E+00
  0.00000E+00  0.20000E+00  0.00000E+00
  0.00000E+00  0.10000E+00  0.00000E+00
  0.11989E+01  0.99198E+00  0.00000E+00
  0.11761E+01  0.10006E+01  0.00000E+00
  0.11533E+01  0.10093E+01  0.00000E+00
  0.11306E+01  0.10179E+01  0.00000E+00
  0.11078E+01  0.10265E+01  0.00000E+00
  0.10850E+01  0.10352E+01  0.00000E+00
  0.10622E+01  0.10438E+01  0.00000E+00
  0.10394E+01  0.10525E+01  0.00000E+00
  0.10167E+01  0.10611E+01  0.00000E+00
  0.99389E+00  0.10697E+01  0.00000E+00
  0.97111E+00  0.10784E+01  0.00000E+00
  0.94833E+00  0.10870E+01  0.00000E+00
  0.92556E+00  0.10957E+01  0.00000E+00
  0.90278E+00  0.11043E+01  0.00000E+00
  0.88000E+00  0.11130E+01  0.00000E+00
  0.85722E+00  0.11216E+01  0.00000E+00
  0.83444E+00  0.11302E+01  0.00000E+00
  0.83444E+00  0.11475E+01  0.00000E+00
  0.85722E+00  0.11562E+01  0.00000E+00
  0.88000E+00  0.11648E+01  0.00000E+00
  0.90278E+00  0.11735E+01  0.00000E+00
  0.92556E+00  0.11821E+01  0.00000E+00
  0.94833E+00  0.11907E+01  0.00000E+00
  0.97111E+00  0.11994E+01  0.00000E+00
  0.99389E+00  0.12080E+01  0.00000E+00
  0.10167E+01  0.12167E+01  0.00000E+00
  0.10394E+01  0.12253E+01  0.00000E+00
  0.10622E+01  0.12340E+01  0.00000E+00
  0.10850E+01  0.12426E+01  0.00000E+00
  0.11078E+01  0.12512E+01  0.00000E+00
  0.11306E+01  0.12599E+01  0.00000E+00
  0.11533E+01  0.12685E+01  0.00000E+00
  0.11761E+01  0.12772E+01  0.00000E+00
  0.11989E+01  0.12858E+01  0.00000E+00
  0.12217E+01  0.12705E+01  0.00000E+00
  0.12217E+01  0.12466E+01  0.00000E+00
  0.12217E+01  0.12227E+01  0.00000E+00
  0.12217E+01  0.11987E+01  0.00000E+00
  0.12217E+01  0.11748E+01  0.00000E+00
  0.12217E+01  0.11508E+01  0.00000E+00
  0.12217E+01  0.11269E+01  0.00000E+00
  0.12217E+01  0.11030E+01  0.00000E+00
  0.12217E+01  0.10791E+01  0.00000E+00
  0.12217E+01  0.10551E+01  0.00000E+00
  0.12217E+01  0.10312E+01  0.00000E+00
  0.12217E+01  0.10073E+01  0.00000E+00
  0.12429E+01  0.10188E+01  0.00000E+00
  0.12399E+01  0.11882E+01  0.00000E+00
  0.21377E+01  0.78680E-01  0.00000E+00
  0.21538E+01  0.19174E+01  0.00000E+00
  0.83774E+00  0.11061E+01  0.00000E+00
  0.97541E+00  0.10554E+01  0.00000E+00
  0.11166E+01  0.10045E+01  0.00000E+00
  0.29463E+01  0.19156E+01  0.00000E+00
  0.26515E+01  0.81480E-01  0.00000E+00
  0.25477E+01  0.19110E+01  0.00000E+00
  0.30502E+01  0.68680E-01  0.00000E+00
  0.83912E+00  0.11750E+01  0.00000E+00
  0.95224E+00  0.12148E+01  0.00000E+00
  0.10661E+01  0.12580E+01  0.00000E+00
  0.11804E+01  0.13002E+01  0.00000E+00
  0.39119E+01  0.10505E+01  0.00000E+00
  0.17555E+01  0.84130E-01  0.00000E+00
  0.64649E+00  0.99150E-01  0.00000E+00
  0.17446E+01  0.19250E+01  0.00000E+00
  0.86600E-01  0.65000E+00  0.00000E+00
  0.14551E+01  0.78430E-01  0.00000E+00
  0.96058E+00  0.81690E-01  0.00000E+00
  0.33501E+01  0.19134E+01  0.00000E+00
  0.39162E+01  0.63967E+00  0.00000E+00
  0.82470E-01  0.14561E+01  0.00000E+00
  0.55009E+00  0.19215E+01  0.00000E+00
  0.85020E-01  0.95314E+00  0.00000E+00
  0.39167E+01  0.13623E+01  0.00000E+00
  0.33616E+01  0.95540E-01  0.00000E+00
  0.90682E+00  0.10774E+01  0.00000E+00
  0.10433E+01  0.10284E+01  0.00000E+00
  0.11799E+01  0.97718E+00  0.00000E+00
  0.12429E+01  0.10931E+01  0.00000E+00
  0.12436E+01  0.12583E+01  0.00000E+00
  0.85035E+00  0.19198E+01  0.00000E+00
  0.14457E+01  0.19288E+01  0.00000E+00
  0.11516E+01  0.19130E+01  0.00000E+00
  0.36450E+01  0.85340E-01  0.00000E+00
  0.84610E-01  0.34945E+00  0.00000E+00
  0.36500E+01  0.19134E+01  0.00000E+00
  0.35776E+00  0.89100E-01  0.00000E+00
  0.39086E+01  0.16476E+01  0.00000E+00
  0.39134E+01  0.35000E+00  0.00000E+00
  0.83900E-01  0.11460E+01  0.00000E+00
  0.35715E+00  0.19076E+01  0.00000E+00
  0.83410E-01  0.16549E+01  0.00000E+00
  0.12495E+01  0.81910E-01  0.00000E+00
  0.19505E+01  0.76550E-01  0.00000E+00
  0.23503E+01  0.82860E-01  0.00000E+00
  0.19504E+01  0.19252E+01  0.00000E+00
  0.23461E+01  0.19181E+01  0.00000E+00
  0.28427E+01  0.83720E-01  0.00000E+00
  0.31542E+01  0.19172E+01  0.00000E+00
  0.27508E+01  0.19148E+01  0.00000E+00
  0.39150E+01  0.84994E+00  0.00000E+00
  0.88020E+00  0.11939E+01  0.00000E+00
  0.99745E+00  0.12340E+01  0.00000E+00
  0.12424E+01  0.11389E+01  0.00000E+00
  0.11119E+01  0.12747E+01  0.00000E+00
  0.78910E-01  0.18478E+01  0.00000E+00
  0.38489E+01  0.73890E-01  0.00000E+00
  0.86600E-01  0.15000E+00  0.00000E+00
  0.38461E+01  0.19156E+01  0.00000E+00
  0.83750E-01  0.10487E+01  0.00000E+00
  0.16314E+00  0.10008E+01  0.00000E+00
  0.16591E+00  0.91287E+00  0.00000E+00
  0.23730E+00  0.95594E+00  0.00000E+00
  0.24013E+00  0.87512E+00  0.00000E+00
  0.30661E+00  0.91623E+00  0.00000E+00
  0.30296E+00  0.99591E+00  0.00000E+00
  0.30938E+00  0.83944E+00  0.00000E+00
  0.37444E+00  0.87856E+00  0.00000E+00
  0.37563E+00  0.80503E+00  0.00000E+00
  0.43612E+00  0.84332E+00  0.00000E+00
  0.43924E+00  0.77347E+00  0.00000E+00
  0.49710E+00  0.80859E+00  0.00000E+00
  0.50063E+00  0.74182E+00  0.00000E+00
  0.55658E+00  0.77549E+00  0.00000E+00
[...]
 POINT_DATA         1810
  
 SCALARS WL      float 1
 LOOKUP_TABLE default
  0.13240E-01
  0.18033E-02
  0.17436E-03
  0.14973E-01
 -0.20908E-01
  0.26754E-01
 -0.29611E-01
  0.13434E-01
  0.13754E-01
  0.13974E-01
  0.13975E-01
  0.13687E-01
  0.13079E-01
  0.12127E-01
  0.10840E-01
  0.94156E-02
  0.79528E-02
  0.65725E-02
  0.53001E-02
  0.43348E-02
  0.37005E-02
  0.35166E-02
  0.37727E-02
  0.43687E-02
  0.52334E-02
  0.62631E-02
  0.72392E-02
  0.79527E-02
  0.83191E-02
  0.82146E-02
  0.77842E-02
  0.70612E-02
  0.62915E-02
  0.56388E-02
  0.51773E-02
  0.49290E-02
  0.50864E-02
  0.53821E-02
  0.61114E-02
  0.69203E-02
  0.76980E-02
  0.82380E-02
  0.81923E-02
  0.73541E-02
  0.56978E-02
  0.34370E-02
  0.00000E+00
  0.00000E+00
  0.00000E+00
  0.00000E+00
  0.00000E+00
  0.00000E+00
  0.00000E+00
  0.00000E+00
  0.00000E+00
  0.00000E+00
  0.00000E+00
  0.00000E+00
  0.00000E+00
  0.00000E+00
  0.00000E+00
  0.00000E+00
  0.00000E+00
  0.00000E+00
  0.00000E+00
  0.66515E-04
  0.11603E-03
  0.39588E-03
  0.83893E-03
  0.15506E-02
  0.24241E-02
  0.35785E-02
  0.48777E-02
  0.60643E-02
  0.71210E-02
  0.76620E-02
  0.77080E-02
  0.72984E-02
  0.67685E-02
  0.60352E-02
  0.53731E-02
  0.48184E-02
  0.43089E-02
  0.38678E-02
  0.36853E-02
  0.37415E-02
  0.39316E-02
  0.42313E-02
  0.46524E-02
  0.51632E-02
  0.58793E-02
  0.68191E-02
  0.77406E-02
  0.87472E-02
  0.96750E-02
  0.10542E-01
  0.11338E-01
  0.12018E-01
  0.12594E-01
  0.13086E-01
  0.13540E-01
  0.13945E-01
  0.14346E-01
  0.14738E-01
  0.15027E-01
  0.15085E-01
  0.15168E-01
  0.15265E-01
  0.15365E-01
  0.15438E-01
  0.15467E-01
  0.15435E-01
  0.15332E-01
  0.15162E-01
  0.14936E-01
  0.14673E-01
  0.14381E-01
  0.14098E-01
  0.13841E-01
  0.13629E-01
  0.13449E-01
  0.13319E-01
  0.13238E-01
 -0.10192E-01
 -0.60138E-02
 -0.26065E-02
 -0.52307E-03
  0.28059E-02
  0.52224E-02
  0.58086E-02
  0.76678E-02
  0.92794E-02
  0.10776E-01
  0.11865E-01
  0.13526E-01
  0.14766E-01
  0.16870E-01
  0.18289E-01
  0.20167E-01
  0.23231E-01
  0.26340E-01
  0.23164E-01
  0.21908E-01
  0.19726E-01
  0.18803E-01
  0.16737E-01
  0.15822E-01
  0.14167E-01
  0.12855E-01
  0.11448E-01
  0.97545E-02
  0.79430E-02
  0.60283E-02
  0.35824E-02
  0.17291E-03
 -0.39125E-02
 -0.10174E-01
 -0.38171E-01
 -0.34646E-01
 -0.31415E-01
 -0.30242E-01
 -0.31138E-01
 -0.33338E-01
 -0.35929E-01
 -0.37098E-01
 -0.36311E-01
 -0.33595E-01
 -0.30144E-01
 -0.27388E-01
 -0.28519E-01
 -0.31035E-01
  0.81312E-02
  0.41951E-02
  0.21075E-01
  0.11368E-01
  0.71737E-03
  0.73206E-02
  0.59561E-02
  0.63999E-02
  0.52326E-02
  0.23601E-01
  0.16318E-01
  0.88835E-02
 -0.60277E-02
 -0.29078E-03
  0.48444E-02
  0.12636E-01
  0.40119E-02
  0.14303E-01
  0.35214E-02
  0.85702E-02
  0.30362E-02
  0.29917E-02
  0.15265E-01
  0.12904E-01
  0.15034E-01
 -0.55268E-02
  0.73827E-02
  0.15607E-01
  0.67265E-02
 -0.74536E-02
 -0.37871E-01
 -0.37390E-01
  0.11050E-01
  0.54050E-02
  0.81245E-02
  0.78620E-02
  0.13664E-01
  0.66252E-03
  0.13993E-01
 -0.17076E-02
  0.24458E-02
  0.15319E-01
  0.13756E-01
  0.15041E-01
  0.47400E-02
  0.68147E-02
  0.80171E-02
  0.37086E-02
  0.52278E-02
  0.51154E-02
  0.54684E-02
  0.74885E-02
  0.23102E-02
  0.20570E-01
  0.13433E-01
 -0.35695E-01
  0.50980E-02
  0.14885E-01
  0.45719E-02
  0.13449E-01
 -0.33558E-04
  0.15205E-01
  0.15084E-01
  0.14931E-01
  0.15001E-01
  0.14845E-01
  0.14924E-01
  0.15088E-01
  0.14744E-01
  0.14833E-01
  0.14608E-01
  0.14689E-01
  0.14422E-01
  0.14461E-01
  0.14147E-01
  0.14133E-01
  0.13764E-01
  0.13657E-01
  0.13277E-01
  0.13032E-01
  0.14846E-01
  0.12695E-01
  0.12288E-01
  0.12756E-01
  0.11827E-01
  0.11415E-01
  0.10750E-01
  0.10440E-01
  0.96114E-02
  0.93978E-02
  0.84114E-02
  0.86055E-02
  0.72605E-02
  0.72106E-02
  0.59125E-02
  0.60613E-02
  0.47112E-02
  0.13461E-01
  0.12421E-01
  0.50106E-02
  0.35960E-02
  0.30118E-02
  0.19502E-02
  0.27305E-02
  0.12853E-02
  0.17145E-03
 -0.22723E-03
 -0.16855E-02
 -0.17142E-02
 -0.22697E-03
 -0.13114E-02
 -0.31965E-02
 -0.22790E-02
 -0.46567E-02
 -0.29564E-02
 -0.58131E-02
 -0.30473E-02
 -0.64602E-02
 -0.25944E-02
 -0.62046E-02
 -0.13140E-02
 -0.49681E-02
  0.31634E-03
 -0.35076E-02
  0.12680E-02
 -0.27734E-02
  0.10100E-02
 -0.45511E-02
 -0.18140E-02
  0.37397E-02
  0.41113E-03
 -0.66235E-02
 -0.40394E-02
  0.23109E-02
 -0.19912E-02
 -0.10855E-01
  0.31346E-02
 -0.20464E-02
  0.61692E-03
  0.21771E-02
 -0.42389E-02
 -0.75079E-02
 -0.10827E-01
 -0.11505E-01
 -0.14847E-01
 -0.13186E-01
 -0.14849E-01
 -0.10497E-01
 -0.96372E-02
 -0.12497E-01
 -0.71689E-02
 -0.33886E-02
 -0.26594E-02
  0.60537E-03
 -0.62830E-04
 -0.30094E-02
 -0.15768E-02
  0.15713E-02
 -0.39752E-03
 -0.69221E-03
  0.27769E-02
  0.78329E-03
 -0.29017E-02
 -0.16500E-02
  0.14635E-02
 -0.12398E-02
 -0.88276E-02
  0.11113E-02
 -0.38010E-02
 -0.38507E-02
  0.67724E-02
 -0.44935E-02
 -0.52768E-02
 -0.36852E-02
 -0.41810E-02
  0.53163E-02
  0.82802E-02
  0.68897E-02
 -0.48904E-02
 -0.72366E-02
 -0.12237E-01
  0.74346E-02
 -0.14451E-02
  0.83685E-02
  0.76380E-02
  0.10248E-01
  0.62345E-02
 -0.29262E-02
  0.15126E-03
 -0.79777E-02
  0.80409E-02
  0.78359E-02
 -0.88259E-03
  0.18286E-02
  0.25248E-02
  0.72473E-02
  0.82162E-02
  0.76193E-02
  0.72646E-02
  0.76858E-02
  0.70930E-02
  0.68825E-02
  0.62708E-02
  0.61354E-03
 -0.23691E-02
  0.25860E-02
  0.14149E-01
  0.14419E-01
  0.76034E-02
  0.70773E-02
 -0.12038E-02
  0.21381E-02
  0.75328E-02
  0.70095E-02
  0.78476E-02
  0.73203E-02
  0.68701E-02
 -0.88230E-02
 -0.46615E-02
  0.36586E-02
  0.29669E-02
  0.49103E-02
  0.43210E-02
  0.55466E-02
  0.51952E-02
  0.36674E-02
  0.49119E-02
  0.33702E-02
  0.50394E-02
  0.39005E-02
  0.58412E-02
  0.57048E-02
  0.50889E-02
  0.22572E-02
  0.60820E-02
  0.66190E-02
  0.62191E-02
  0.39876E-02
 -0.11461E-01
 -0.73817E-02
 -0.73832E-02
 -0.37625E-02
 -0.24584E-02
  0.15129E-03
  0.16166E-02
  0.33758E-02
  0.19443E-02
 -0.54702E-03
  0.29012E-02
  0.94399E-03
  0.33230E-02
  0.14490E-02
  0.30465E-02
  0.67766E-03
  0.24153E-02
 -0.40291E-03
  0.17577E-02
 -0.10531E-02
 -0.53063E-02
 -0.56509E-02
 -0.73660E-03
 -0.37709E-02
  0.39273E-03
 -0.92151E-03
 -0.63745E-02
 -0.10996E-02
  0.12900E-02
  0.16110E-02
  0.11456E-02
  0.29224E-02
  0.45154E-02
  0.21591E-02
  0.22883E-02
  0.13475E-02
  0.12459E-03
  0.32155E-03
 -0.15844E-02
  0.31882E-04
 -0.16928E-02
  0.76305E-03
  0.29048E-03
  0.24504E-02
  0.27209E-02
  0.45275E-02
  0.52965E-02
  0.65493E-02
  0.75712E-02
  0.76880E-03
  0.15823E-02
  0.26292E-02
  0.83094E-02
  0.94029E-02
  0.90033E-02
  0.10631E-01
  0.10455E-01
  0.11888E-01
  0.11777E-01
  0.12942E-01
  0.12581E-01
  0.13572E-01
  0.14254E-01
  0.14529E-01
  0.13880E-01
  0.14644E-01
  0.15404E-01
  0.15302E-01
  0.16147E-01
  0.15807E-01
  0.15089E-01
  0.15446E-01
  0.16128E-01
  0.15664E-01
  0.16251E-01
  0.14871E-01
  0.15733E-01
  0.16188E-01
  0.15687E-01
  0.15368E-01
  0.16894E-01
  0.16334E-01
  0.86245E-02
  0.10269E-01
 -0.12769E-01
  0.16001E-01
  0.16739E-01
  0.15595E-01
  0.16257E-01
  0.16929E-01
  0.32121E-03
  0.13569E-02
 -0.53866E-02
 -0.10457E-01
 -0.46992E-02
 -0.20594E-01
 -0.15587E-01
 -0.32873E-01
  0.46465E-02
  0.29782E-02
 -0.36426E-01
 -0.48052E-01
 -0.44058E-01
 -0.55717E-01
 -0.56693E-01
 -0.59844E-01
 -0.15998E-01
  0.54833E-02
 -0.14014E-01
  0.97275E-02
  0.44652E-02
  0.61014E-02
  0.53623E-02
 -0.10648E-01
  0.14011E-01
  0.13319E-01
  0.13492E-01
  0.52945E-02
  0.64444E-02
  0.55380E-02
  0.75250E-03
  0.22460E-02
  0.34834E-02
 -0.40779E-02
  0.66485E-02
  0.59975E-02
  0.17368E-02
  0.22927E-02
  0.59437E-02
  0.67220E-02
 -0.57471E-01
 -0.57697E-01
 -0.57534E-01
 -0.53484E-01
 -0.10888E-02
  0.38945E-02
  0.82523E-02
  0.10248E-01
 -0.25826E-03
  0.33094E-02
  0.16357E-01
  0.16982E-01
  0.17753E-01
  0.17752E-01
  0.16839E-01
  0.17562E-01
  0.57293E-02
  0.64462E-03
 -0.51078E-01
 -0.39709E-01
  0.59115E-02
  0.87945E-02
  0.54123E-02
  0.44685E-02
  0.45312E-02
  0.37032E-02
  0.38664E-02
  0.32055E-02
  0.53147E-02
  0.34679E-02
  0.10670E-03
  0.54167E-03
 -0.36790E-02
 -0.24550E-02
  0.18426E-02
  0.31419E-03
  0.72504E-02
  0.66496E-02
  0.54730E-02
  0.88501E-02
  0.76668E-02
  0.91642E-02
  0.80068E-02
  0.96273E-02
  0.63214E-02
  0.65733E-02
  0.47723E-02
  0.49067E-02
  0.29512E-02
  0.69035E-02
  0.16482E-01
  0.16785E-01
  0.17774E-01
  0.16834E-01
  0.27944E-02
  0.75431E-02
 -0.51251E-01
  0.30076E-02
  0.76525E-03
  0.99446E-03
 -0.14717E-02
 -0.12350E-03
 -0.20280E-02
  0.62018E-02
  0.11902E-01
  0.74519E-02
  0.18771E-01
  0.95132E-03
  0.12174E-01
  0.13440E-01
  0.59543E-02
 -0.18932E-02
  0.15988E-01
  0.15791E-01
  0.16568E-01
  0.15309E-01
  0.15869E-01
  0.70144E-02
  0.14483E-01
  0.14797E-01
  0.12817E-01
  0.78665E-02
  0.77221E-02
  0.87661E-02
 -0.46969E-01
  0.99615E-02
 -0.34615E-02
  0.13079E-01
 -0.51562E-01
 -0.45001E-01
 -0.46594E-01
 -0.38480E-01
  0.28953E-02
  0.31806E-02
  0.15880E-01
  0.57515E-02
 -0.36597E-01
 -0.29617E-01
 -0.30075E-01
 -0.22919E-01
  0.72432E-02
  0.13747E-01
  0.14907E-01
  0.45535E-02
  0.43515E-02
  0.33390E-02
 -0.22863E-01
 -0.17250E-01
 -0.16284E-01
 -0.12373E-01
 -0.67150E-02
  0.14933E-01
  0.36860E-02
  0.39462E-02
  0.46936E-02
  0.77030E-03
  0.31488E-02
  0.16118E-01
  0.55799E-02
  0.59899E-02
  0.24742E-03
  0.34637E-02
  0.64977E-02
 -0.44458E-01
 -0.36314E-01
 -0.12218E-01
 -0.18182E-01
 -0.89740E-02
  0.78719E-02
  0.43211E-02
  0.58303E-02
 -0.45525E-02
  0.62495E-02
  0.32030E-02
  0.13372E-01
  0.13421E-01
  0.13272E-01
  0.12008E-01
  0.11884E-01
  0.27408E-02
  0.16866E-02
  0.77725E-02
  0.47052E-02
  0.48923E-02
  0.38818E-02
  0.58958E-02
 -0.89059E-03
  0.18541E-01
  0.19837E-01
 -0.24467E-01
  0.27294E-02
  0.26177E-02
  0.30153E-02
  0.65026E-02
 -0.18887E-01
 -0.15500E-01
  0.19215E-01
  0.20647E-01
  0.19542E-01
  0.20763E-01
  0.41933E-02
  0.13604E-01
  0.13309E-01
  0.13754E-01
  0.13500E-01
  0.13900E-01
 -0.12784E-01
  0.87931E-02
  0.98673E-02
  0.52328E-02
  0.49035E-02
 -0.41964E-01
  0.16657E-01
  0.15766E-01
  0.98175E-02
  0.10788E-01
  0.10850E-01
  0.11641E-01
  0.11679E-01
  0.12368E-01
  0.12406E-01
  0.12967E-01
  0.12958E-01
  0.13431E-01
  0.13450E-01
  0.13766E-01
  0.13804E-01
  0.13983E-01
  0.13954E-01
  0.13453E-01
  0.60502E-02
  0.15321E-01
  0.16384E-01
  0.15747E-01
  0.17043E-01
  0.17822E-01
  0.19355E-01
  0.12873E-02
  0.12414E-01
  0.62439E-02
  0.12825E-01
  0.14056E-01
  0.14110E-01
  0.14216E-01
  0.62563E-02
  0.51941E-02
  0.27963E-02
  0.10508E-01
  0.13236E-01
  0.65391E-02
  0.14643E-01
  0.74240E-02
  0.70446E-02
  0.66198E-02
 -0.15440E-02
  0.91435E-02
 -0.33402E-02
 -0.50856E-02
 -0.54070E-01
 -0.47912E-01
 -0.49224E-01
  0.19993E-01
 -0.38350E-01
 -0.97095E-02
  0.56839E-02
 -0.27484E-01
 -0.10979E-01
 -0.71416E-02
 -0.93070E-02
 -0.89491E-02
  0.10776E-01
  0.73614E-02
  0.10111E-01
  0.10936E-01
  0.27456E-02
  0.31094E-02
  0.21757E-02
 -0.14272E-01
 -0.30414E-02
 -0.13898E-01
 -0.86900E-02
 -0.19626E-01
 -0.15210E-01
  0.13712E-01
  0.14052E-01
  0.14237E-01
  0.14359E-01
  0.14546E-01
  0.14239E-01
  0.14642E-01
  0.14792E-01
  0.14171E-01
  0.53932E-02
  0.54492E-02
  0.56249E-02
  0.37326E-02
  0.11595E-01
  0.10307E-01
  0.98844E-02
  0.86558E-02
  0.34887E-02
  0.36819E-02
  0.34028E-02
  0.33490E-02
  0.13315E-01
  0.13079E-01
  0.87064E-02
  0.20082E-01
 -0.39369E-01
 -0.34560E-01
  0.99989E-03
 -0.17909E-02
  0.34657E-02
 -0.81332E-02
  0.58130E-02
  0.52019E-02
 -0.30719E-01
  0.92494E-02
  0.45379E-02
  0.39476E-02
  0.39348E-02
  0.36054E-02
  0.29189E-02
  0.31039E-02
  0.39999E-02
  0.35443E-02
  0.46807E-02
  0.40222E-02
  0.52901E-02
  0.30501E-02
 -0.24492E-01
 -0.21160E-01
 -0.20060E-01
  0.55986E-02
  0.61936E-02
 -0.25169E-01
 -0.17813E-01
 -0.14106E-01
  0.18180E-01
  0.18661E-01
  0.18156E-01
  0.63086E-02
  0.62676E-02
 -0.37846E-02
 -0.55049E-02
 -0.44158E-02
  0.42515E-02
  0.62984E-02
  0.33766E-02
 -0.27741E-02
 -0.27173E-02
 -0.18661E-03
 -0.40371E-02
 -0.34136E-02
 -0.48313E-02
 -0.41716E-02
 -0.12135E-02
 -0.19354E-02
 -0.58195E-02
  0.12532E-02
 -0.28568E-02
 -0.67222E-02
 -0.87053E-02
 -0.85234E-02
  0.13199E-01
  0.11771E-01
  0.44348E-02
  0.56192E-02
 -0.13595E-02
 -0.41972E-02
 -0.21201E-02
 -0.20142E-03
  0.51724E-02
  0.15828E-01
  0.15538E-01
  0.15424E-01
  0.58913E-02
 -0.18102E-01
 -0.20522E-01
  0.32288E-02
 -0.85033E-02
  0.55110E-02
  0.54190E-02
  0.17198E-02
 -0.10626E-02
  0.17274E-02
  0.70805E-03
  0.62664E-02
  0.14523E-01
 -0.73887E-02
 -0.77398E-02
 -0.38798E-02
 -0.52536E-02
  0.94220E-02
  0.12586E-01
  0.12251E-01
  0.89809E-02
 -0.19073E-01
  0.22493E-01
  0.83503E-02
  0.12472E-01
  0.59981E-02
  0.66511E-02
  0.72573E-02
  0.72489E-02
  0.13903E-01
  0.32624E-02
  0.33598E-02
 -0.15333E-02
  0.59518E-02
  0.11421E-02
  0.12949E-01
  0.13488E-01
  0.13801E-01
 -0.32348E-01
 -0.54193E-02
 -0.75148E-02
  0.56750E-02
  0.66394E-02
  0.64893E-02
  0.15544E-01
  0.15265E-01
  0.13507E-02
  0.40837E-02
 -0.35740E-01
  0.65131E-02
  0.70446E-02
  0.61745E-02
  0.14063E-01
  0.10140E-01
  0.77678E-02
  0.12848E-01
  0.14556E-01
  0.15501E-01
 -0.10923E-01
 -0.13078E-02
  0.65255E-02
  0.16236E-01
 -0.43679E-01
 -0.40007E-01
 -0.43701E-01
  0.76952E-02
  0.77635E-02
  0.15127E-01
 -0.57094E-02
 -0.60881E-02
  0.54588E-02
  0.57128E-02
  0.56983E-02
  0.61123E-02
 -0.16292E-01
 -0.11887E-01
  0.27396E-02
  0.19400E-02
  0.80207E-02
  0.81642E-02
  0.94987E-02
  0.36696E-02
  0.36737E-02
  0.15087E-01
  0.14881E-01
  0.14985E-01
  0.14975E-01
  0.15103E-01
  0.15145E-01
  0.15187E-01
  0.15215E-01
  0.15222E-01
  0.57099E-02
  0.34059E-02
 -0.56941E-02
  0.57012E-02
  0.62907E-02
  0.67593E-02
  0.10698E-01
  0.33352E-02
  0.28261E-02
  0.67151E-02
  0.14314E-01
  0.12865E-02
 -0.11133E-01
  0.11645E-01
 -0.90411E-03
 -0.20195E-01
 -0.50789E-02
  0.51657E-02
  0.50250E-02
  0.15340E-01
  0.15245E-01
 -0.37514E-01
 -0.63611E-02
 -0.72605E-02
  0.32717E-02
  0.65167E-02
  0.14494E-01
 -0.24259E-01
 -0.14849E-01
 -0.15179E-01
 -0.89202E-02
 -0.84806E-02
 -0.49245E-02
 -0.44498E-01
 -0.38750E-01
  0.14500E-01
  0.14423E-01
  0.22750E-02
  0.16202E-02
  0.12054E-01
  0.22510E-02
  0.45771E-02
  0.14044E-01
  0.14827E-01
  0.37508E-02
  0.15334E-01
  0.15444E-02
  0.63580E-02
  0.11053E-01
  0.10203E-01
  0.37827E-02
  0.52043E-02
  0.29565E-02
  0.31917E-02
  0.37175E-02
  0.42772E-02
  0.33592E-02
 -0.29147E-01
  0.52830E-02
  0.67341E-02
  0.15278E-01
 -0.19548E-01
  0.59737E-02
  0.59822E-02
  0.58309E-02
  0.40122E-02
  0.14360E-01
  0.81353E-02
  0.81764E-02
  0.82797E-02
  0.81253E-02
  0.12742E-01
 -0.40909E-02
  0.11845E-01
  0.49714E-02
 -0.40369E-01
  0.14791E-01
  0.13329E-01
  0.15210E-01
  0.35000E-02
  0.37261E-02
  0.29191E-02
  0.37425E-02
  0.41704E-02
  0.40854E-02
  0.45631E-02
  0.41812E-02
  0.47040E-02
  0.51353E-02
  0.13876E-01
  0.18987E-01
  0.20578E-01
  0.17616E-01
  0.52850E-02
  0.78285E-02
  0.98350E-02
  0.10814E-01
  0.11840E-01
 -0.60129E-02
 -0.36693E-02
 -0.52887E-01
 -0.12275E-01
 -0.40076E-02
 -0.34231E-01
  0.13595E-01
  0.44029E-02
  0.37743E-02
  0.61344E-02
 -0.48729E-02
  0.63800E-02
  0.22240E-01
 -0.25657E-01
  0.14476E-01
 -0.24910E-02
  0.21534E-01
  0.21815E-01
  0.19624E-01
  0.20314E-01
  0.22115E-01
  0.20302E-01
  0.18870E-01
 -0.43335E-02
  0.91328E-02
  0.82688E-02
  0.60277E-02
  0.13851E-01
  0.46087E-02
  0.67302E-02
  0.88030E-02
  0.71244E-03
 -0.24487E-02
  0.94788E-02
 -0.99144E-02
 -0.35665E-02
 -0.34867E-01
 -0.30259E-01
 -0.24881E-01
 -0.37856E-01
 -0.21295E-01
  0.48493E-02
  0.13994E-01
  0.12732E-01
  0.15835E-01
  0.16968E-01
  0.18557E-01
  0.17448E-01
 -0.21447E-01
  0.24055E-02
  0.11163E-01
  0.65616E-02
  0.35128E-02
  0.14180E-01
  0.22193E-01
  0.74797E-02
  0.42741E-02
  0.14626E-01
  0.13943E-01
  0.14828E-01
  0.14573E-01
 -0.29097E-01
  0.58403E-02
  0.16175E-02
 -0.35154E-01
 -0.34561E-01
  0.15192E-01
  0.15066E-01
  0.14971E-01
  0.13481E-01
 -0.57745E-02
  0.67749E-03
  0.23989E-01
  0.24971E-01
 -0.26712E-03
  0.16874E-01
  0.13336E-01
 -0.17230E-01
  0.23221E-02
  0.12810E-02
  0.27382E-02
  0.23097E-02
  0.24079E-02
  0.18193E-02
  0.65920E-02
  0.67121E-02
  0.50211E-02
  0.62213E-02
  0.78586E-02
  0.14828E-01
  0.16390E-01
  0.17958E-01
  0.17854E-01
 -0.58383E-02
 -0.95432E-02
 -0.12437E-01
  0.34519E-02
  0.45181E-02
  0.38707E-02
  0.54311E-02
  0.15214E-01
  0.34163E-02
 -0.21887E-01
 -0.99957E-02
 -0.13063E-01
 -0.22112E-01
 -0.22263E-01
  0.13579E-01
  0.13976E-01
  0.13951E-01
  0.13982E-01
  0.13800E-01
  0.13931E-01
  0.16628E-01
 -0.28768E-03
  0.16453E-02
  0.14791E-01
  0.14899E-01
  0.84465E-02
  0.20451E-02
  0.35698E-02
  0.15124E-01
  0.98710E-02
  0.11185E-01
 -0.75228E-02
  0.28165E-02
 -0.11529E-01
 -0.13924E-01
  0.15242E-01
 -0.17683E-02
  0.32243E-02
  0.38975E-02
  0.46419E-02
  0.48007E-02
 -0.49487E-02
  0.38879E-02
  0.14175E-01
  0.14042E-01
  0.96756E-03
  0.85990E-02
  0.17434E-01
 -0.43744E-02
  0.18933E-01
  0.20367E-01
 -0.16407E-01
  0.13347E-01
  0.13997E-01
  0.14150E-01
  0.14360E-01
  0.61504E-02
  0.15113E-01
  0.38257E-02
  0.13525E-01
  0.13755E-01
  0.13539E-01
 -0.14168E-01
 -0.32826E-01
  0.86803E-03
  0.24887E-03
  0.17158E-02
  0.57886E-02
  0.64478E-02
  0.16159E-02
  0.92430E-02
  0.10130E-01
  0.17751E-01
  0.57602E-02
  0.54516E-02
  0.11744E-01
  0.11588E-01
  0.12261E-01
  0.12376E-01
  0.12854E-01
  0.56565E-02
  0.69423E-02
  0.54490E-02
  0.58666E-02
  0.62851E-02
  0.35729E-02
  0.46347E-02
 -0.31523E-02
 -0.56179E-02
  0.58537E-02
  0.51406E-02
  0.64890E-02
  0.72147E-02
  0.78754E-02
  0.95896E-03
  0.11057E-01
  0.91343E-02
  0.13012E-01
  0.13116E-01
  0.19547E-01
 -0.90974E-02
  0.66375E-02
  0.43419E-02
  0.15191E-01
 -0.47243E-02
  0.61124E-02
  0.67874E-02
  0.77858E-02
  0.82199E-02
  0.80666E-02
  0.79801E-02
  0.77868E-02
  0.73836E-02
 -0.57504E-01
 -0.35953E-02
  0.42379E-02
  0.14951E-01
  0.14680E-01
  0.15315E-01
  0.83031E-02
  0.70659E-02
  0.50840E-02
  0.15198E-01
  0.14026E-01
  0.74532E-02
  0.76687E-02
  0.66741E-02
 -0.67677E-02
 -0.78303E-02
 -0.35702E-02
 -0.34861E-03
  0.18610E-01
 -0.90465E-02
 -0.53347E-02
 -0.36838E-02
 -0.52850E-02
 -0.44686E-02
  0.34746E-02
  0.58679E-02
 -0.87280E-03
 -0.23490E-02
 -0.26326E-02
  0.76841E-02
  0.71740E-02
  0.73090E-02
  0.61662E-02
  0.14174E-01
 -0.27884E-02
  0.63246E-02
  0.17481E-01
  0.73366E-03
  0.56317E-02
  0.13530E-02
  0.19021E-03
 -0.96028E-04
 -0.19855E-03
 -0.68554E-03
  0.50332E-02
  0.65604E-02
  0.57086E-02
  0.20237E-02
  0.29238E-02
  0.39541E-02
  0.42930E-02
  0.65378E-02
  0.29452E-02
  0.26642E-02
 -0.18066E-01
  0.43918E-02
  0.42859E-02
  0.10950E-01
  0.57244E-02
  0.20097E-02
  0.93089E-03
  0.41518E-02
 -0.62488E-02
 -0.70928E-02
  0.91313E-03
  0.38400E-02
 -0.14585E-02
 -0.56653E-02
  0.14106E-02
  0.75820E-02
 -0.50459E-02
 -0.61611E-02
  0.11815E-02
  0.34557E-02
 -0.14478E-02
  0.10107E-01
 -0.68102E-02
  0.37927E-02
 -0.85850E-02
 -0.92887E-02
 -0.51036E-02
  0.53816E-02
  0.44256E-02
 -0.14782E-01
 -0.54085E-02
  0.55598E-02
 -0.38272E-02
 -0.33250E-02
 -0.24347E-01
  0.77715E-02
  0.63318E-02
  0.11798E-01
  0.35631E-02
  0.48624E-02
 -0.73582E-02
  0.18918E-02
  0.58142E-02
  0.60647E-02
 -0.40684E-02
  0.39418E-02
  0.66433E-02
  0.60946E-02
  0.51846E-04
 -0.28389E-01
 -0.20522E-01
  0.56097E-02
 -0.92393E-02
  0.56984E-02
  0.63883E-02
 -0.12000E-01
  0.27308E-02
 -0.53714E-02
 -0.12060E-01
  0.64654E-02
 -0.51802E-03
  0.14568E-01
 -0.43124E-02
 -0.28574E-01
  0.11649E-01
 -0.14336E-02
  0.48422E-02
  0.64506E-02
  0.83093E-02
 -0.21793E-02
  0.47802E-02
  0.15093E-01
 -0.37843E-02
  0.18884E-01
  0.78094E-02
  0.23773E-01
  0.19004E-01
  0.78812E-02
  0.17480E-01
 -0.36913E-01
 -0.33570E-01
  0.10100E-01
  0.12810E-01
  0.84168E-02
  0.17082E-01
 -0.28442E-03
  0.54344E-02
 -0.24893E-01
 -0.32597E-01
 -0.89488E-02
  0.13059E-01
 -0.14991E-01
 -0.36085E-01
 -0.75580E-02
  0.15905E-03
  0.50947E-02
 -0.37650E-01
 -0.39385E-01