# vtk DataFile Version 2.0
Unstructured Grid UFVM-ECOMOD
ASCII
DATASET UNSTRUCTURED_GRID
 POINTS         1810  float
  0.00000E+00  0.00000E+00  0.00000E+00
  0.40000E+01  0.00000E+00  0.00000E+00
  0.40000E+01  0.20000E+01  0.00000E+00
  0.00000E+00  0.20000E+01  0.00000E+00
  0.12217E+01  0.98333E+00  0.00000E+00
  0.81167E+00  0.11389E+01  0.00000E+00
  0.12217E+01  0.12944E+01  0.00000E+00
  0.10000E+00  0.00000E+00  0.00000E+00
  0.20000E+00  0.00000E+00  0.00000E+00
  0.30000E+00  0.00000E+00  0.00000E+00
  0.40000E+00  0.00000E+00  0.00000E+00
  0.50000E+00  0.00000E+00  0.00000E+00
  0.60000E+00  0.00000E+00  0.00000E+00
  0.70000E+00  0.00000E+00  0.00000E+00
  0.80000E+00  0.00000E+00  0.00000E+00
  0.90000E+00  0.00000E+00  0.00000E+00
  0.10000E+01  0.00000E+00  0.00000E+00
  0.11000E+01  0.00000E+00  0.00000E+00
  0.12000E+01  0.00000E+00  0.00000E+00
  0.13000E+01  0.00000E+00  0.00000E+00
  0.14000E+01  0.00000E+00  0.00000E+00
  0.15000E+01  0.00000E+00  0.00000E+00
  0.16000E+01  0.00000E+00  0.00000E+00
  0.17000E+01  0.00000E+00  0.00000E+00
  0.18000E+01  0.00000E+00  0.00000E+00
  0.19000E+01  0.00000E+00  0.00000E+00
  0.20000E+01  0.00000E+00  0.00000E+00
  0.21000E+01  0.00000E+00  0.00000E+00
  0.22000E+01  0.00000E+00  0.00000E+00
  0.23000E+01  0.00000E+00  0.00000E+00
  0.24000E+01  0.00000E+00  0.00000E+00
  0.25000E+01  0.00000E+00  0.00000E+00
  0.26000E+01  0.00000E+00  0.00000E+00
  0.27000E+01  0.00000E+00  0.00000E+00
  0.28000E+01  0.00000E+00  0.00000E+00
  0.29000E+01  0.00000E+00  0.00000E+00
  0.30000E+01  0.00000E+00  0.00000E+00
  0.31000E+01  0.00000E+00  0.00000E+00
  0.32000E+01  0.00000E+00  0.00000E+00
  0.33000E+01  0.00000E+00  0.00000E+00
  0.34000E+01  0.00000E+00  0.00000E+00
  0.35000E+01  0.00000E+00  0.00000E+00
  0.36000E+01  0.00000E+00  0.00000E+00
  0.37000E+01  0.00000E+00  0.00000E+00
  0.38000E+01  0.00000E+00  0.00000E+00
  0.39000E+01  0.00000E+00  0.00000E+00
  0.40000E+01  0.10000E+00  0.00000E+00
  0.40000E+01  0.20000E+00  0.00000E+00
  0.40000E+01  0.30000E+00  0.00000E+00
  0.40000E+01  0.40000E+00  0.00000E+00
  0.40000E+01  0.50000E+00  0.00000E+00
  0.40000E+01  0.60000E+00  0.00000E+00
  0.40000E+01  0.70000E+00  0.00000E+00
  0.40000E+01  0.80000E+00  0.00000E+00
  0.40000E+01  0.90000E+00  0.00000E+00
  0.40000E+01  0.10000E+01  0.00000E+00
  0.40000E+01  0.11000E+01  0.00000E+00
  0.40000E+01  0.12000E+01  0.00000E+00
  0.40000E+01  0.13000E+01  0.00000E+00
  0.40000E+01  0.14000E+01  0.00000E+00
  0.40000E+01  0.15000E+01  0.00000E+00
  0.40000E+01  0.16000E+01  0.00000E+00
  0.40000E+01  0.17000E+01  0.00000E+00
  0.40000E+01  0.18000E+01  0.00000E+00
  0.40000E+01  0.19000E+01  0.00000E+00
  0.39000E+01  0.20000E+01  0.00000E+00
  0.38000E+01  0.20000E+01  0.00000E+00
  0.37000E+01  0.20000E+01  0.00000E+00
  0.36000E+01  0.20000E+01  0.00000E+00
  0.35000E+01  0.20000E+01  0.00000E+00
  0.34000E+01  0.20000E+01  0.00000E+00
  0.33000E+01  0.20000E+01  0.00000E+00
  0.32000E+01  0.20000E+01  0.00000E+00
  0.31000E+01  0.20000E+01  0.00000E+00
  0.30000E+01  0.20000E+01  0.00000E+00
  0.29000E+01  0.20000E+01  0.00000E+00
  0.28000E+01  0.20000E+01  0.00000E+00
  0.27000E+01  0.20000E+01  0.00000E+00
  0.26000E+01  0.20000E+01  0.00000E+00
  0.25000E+01  0.20000E+01  0.00000E+00
  0.24000E+01  0.20000E+01  0.00000E+00
  0.23000E+01  0.20000E+01  0.00000E+00
  0.22000E+01  0.20000E+01  0.00000E+00
  0.21000E+01  0.20000E+01  0.00000E+00
  0.20000E+01  0.20000E+01  0.00000E+00
  0.19000E+01  0.20000E+01  0.00000E+00
  0.18000E+01  0.20000E+01  0.00000E+00
  0.17000E+01  0.20000E+01  0.00000E+00
  0.16000E+01  0.20000E+01  0.00000E+00
  0.15000E+01  0.20000E+01  0.00000E+00
  0.14000E+01  0.20000E+01  0.00000E+00
  0.13000E+01  0.20000E+01  0.00000E+00
  0.12000E+01  0.20000E+01  0.00000E+00
  0.11000E+01  0.20000E+01  0.00000E+00
  0.10000E+01  0.20000E+01  0.00000E+00
  0.90000E+00  0.20000E+01  0.00000E+00
  0.80000E+00  0.20000E+01  0.00000E+00
  0.70000E+00  0.20000E+01  0.00000E+00
  0.60000E+00  0.20000E+01  0.00000E+00
  0.50000E+00  0.20000E+01  0.00000E+00
  0.40000E+00  0.20000E+01  0.00000E+00
  0.30000E+00  0.20000E+01  0.00000E+00
  0.20000E+00  0.20000E+01  0.00000E+00
  0.10000E+00  0.20000E+01  0.00000E+00
  0.00000E+00  0.19000E+01  0.00000E+00
  0.00000E+00  0.18000E+01  0.00000E+00
  0.00000E+00  0.17000E+01  0.00000E+00
  0.00000E+00  0.16000E+01  0.00000E+00
  0.00000E+00  0.15000E+01  0.00000E+00
  0.00000E+00  0.14000E+01  0.00000E+00
  0.00000E+00  0.13000E+01  0.00000E+00
  0.00000E+00  0.12000E+01  0.00000E+00
  0.00000E+00  0.11000E+01  0.00000E+00
  0.00000E+00  0.10000E+01  0.00000E+00
  0.00000E+00  0.90000E+00  0.00000E+00
  0.00000E+00  0.80000E+00  0.00000E+00
  0.00000E+00  0.70000E+00  0.00000E+00
  0.00000E+00  0.60000E+00  0.00000E+00
  0.00000E+00  0.50000E+00  0.00000E+00
  0.00000E+00  0.40000E+00  0.00000E+00
  0.00000E+00  0.30000E+00  0.00000E+00
  0.00000E+00  0.20000E+00  0.00000E+00
  0.00000E+00  0.10000E+00  0.00000E+00
  0.11989E+01  0.99198E+00  0.00000E+00
  0.11761E+01  0.10006E+01  0.00000E+00
  0.11533E+01  0.10093E+01  0.00000E+00
  0.11306E+01  0.10179E+01  0.00000E+00
  0.11078E+01  0.10265E+01  0.00000E+00
  0.10850E+01  0.10352E+01  0.00000E+00
  0.10622E+01  0.10438E+01  0.00000E+00
  0.10394E+01  0.10525E+01  0.00000E+00
  0.10167E+01  0.10611E+01  0.00000E+00
  0.99389E+00  0.10697E+01  0.00000E+00
  0.97111E+00  0.10784E+01  0.00000E+00
  0.94833E+00  0.10870E+01  0.00000E+00
  0.92556E+00  0.10957E+01  0.00000E+00
  0.90278E+00  0.11043E+01  0.00000E+00
  0.88000E+00  0.11130E+01  0.00000E+00
  0.85722E+00  0.11216E+01  0.00000E+00
  0.83444E+00  0.11302E+01  0.00000E+00
  0.83444E+00  0.11475E+01  0.00000E+00
  0.85722E+00  0.11562E+01  0.00000E+00
  0.88000E+00  0.11648E+01  0.00000E+00
  0.90278E+00  0.11735E+01  0.00000E+00
  0.92556E+00  0.11821E+01  0.00000E+00
  0.94833E+00  0.11907E+01  0.00000E+00
  0.97111E+00  0.11994E+01  0.00000E+00
  0.99389E+00  0.12080E+01  0.00000E+00
  0.10167E+01  0.12167E+01  0.00000E+00
  0.10394E+01  0.12253E+01  0.00000E+00
  0.10622E+01  0.12340E+01  0.00000E+00
  0.10850E+01  0.12426E+01  0.00000E+00
  0.11078E+01  0.12512E+01  0.00000E+00
  0.11306E+01  0.12599E+01  0.00000E+00
  0.11533E+01  0.12685E+01  0.00000E+00
  0.11761E+01  0.12772E+01  0.00000E+00
  0.11989E+01  0.12858E+01  0.00000E+00
  0.12217E+01  0.12705E+01  0.00000E+00
  0.12217E+01  0.12466E+01  0.00000E+00
  0.12217E+01  0.12227E+01  0.00000E+00
  0.12217E+01  0.11987E+01  0.00000E+00
  0.12217E+01  0.11748E+01  0.00000E+00
  0.12217E+01  0.11508E+01  0.00000E+00
  0.12217E+01  0.11269E+01  0.00000E+00
  0.12217E+01  0.11030E+01  0.00000E+00
  0.12217E+01  0.10791E+01  0.00000E+00
  0.12217E+01  0.10551E+01  0.00000E+00
  0.12217E+01  0.10312E+01  0.00000E+00
  0.12217E+01  0.10073E+01  0.00000E+00
  0.12429E+01  0.10188E+01  0.00000E+00
  0.12399E+01  0.11882E+01  0.00000E+00
  0.21377E+01  0.78680E-01  0.00000E+00
  0.21538E+01  0.19174E+01  0.00000E+00
  0.83774E+00  0.11061E+01  0.00000E+00
  0.97541E+00  0.10554E+01  0.00000E+00
  0.11166E+01  0.10045E+01  0.00000E+00
  0.29463E+01  0.19156E+01  0.00000E+00
  0.26515E+01  0.81480E-01  0.00000E+00
  0.25477E+01  0.19110E+01  0.00000E+00
  0.30502E+01  0.68680E-01  0.00000E+00
  0.83912E+00  0.11750E+01  0.00000E+00
  0.95224E+00  0.12148E+01  0.00000E+00
  0.10661E+01  0.12580E+01  0.00000E+00
  0.11804E+01  0.13002E+01  0.00000E+00
  0.39119E+01  0.10505E+01  0.00000E+00
  0.17555E+01  0.84130E-01  0.00000E+00
  0.64649E+00  0.99150E-01  0.00000E+00
  0.17446E+01  0.19250E+01  0.00000E+00
  0.86600E-01  0.65000E+00  0.00000E+00
  0.14551E+01  0.78430E-01  0.00000E+00
  0.96058E+00  0.81690E-01  0.00000E+00
  0.33501E+01  0.19134E+01  0.00000E+00
  0.39162E+01  0.63967E+00  0.00000E+00
  0.82470E-01  0.14561E+01  0.00000E+00
  0.55009E+00  0.19215E+01  0.00000E+00
  0.85020E-01  0.95314E+00  0.00000E+00
  0.39167E+01  0.13623E+01  0.00000E+00
  0.33616E+01  0.95540E-01  0.00000E+00
  0.90682E+00  0.10774E+01  0.00000E+00
  0.10433E+01  0.10284E+01  0.00000E+00
  0.11799E+01  0.97718E+00  0.00000E+00
  0.12429E+01  0.10931E+01  0.00000E+00
  0.12436E+01  0.12583E+01  0.00000E+00
  0.85035E+00  0.19198E+01  0.00000E+00
  0.14457E+01  0.19288E+01  0.00000E+00
  0.11516E+01  0.19130E+01  0.00000E+00
  0.36450E+01  0.85340E-01  0.00000E+00
  0.84610E-01  0.34945E+00  0.00000E+00
  0.36500E+01  0.19134E+01  0.00000E+00
  0.35776E+00  0.89100E-01  0.00000E+00
  0.39086E+01  0.16476E+01  0.00000E+00
  0.39134E+01  0.35000E+00  0.00000E+00
  0.83900E-01  0.11460E+01  0.00000E+00
  0.35715E+00  0.19076E+01  0.00000E+00
  0.83410E-01  0.16549E+01  0.00000E+00
  0.12495E+01  0.81910E-01  0.00000E+00
  0.19505E+01  0.76550E-01  0.00000E+00
  0.23503E+01  0.82860E-01  0.00000E+00
  0.19504E+01  0.19252E+01  0.00000E+00
  0.23461E+01  0.19181E+01  0.00000E+00
  0.28427E+01  0.83720E-01  0.00000E+00
  0.31542E+01  0.19172E+01  0.00000E+00
  0.27508E+01  0.19148E+01  0.00000E+00
  0.39150E+01  0.84994E+00  0.00000E+00
  0.88020E+00  0.11939E+01  0.00000E+00
  0.99745E+00  0.12340E+01  0.00000E+00
  0.12424E+01  0.11389E+01  0.00000E+00
  0.11119E+01  0.12747E+01  0.00000E+00
  0.78910E-01  0.18478E+01  0.00000E+00
  0.38489E+01  0.73890E-01  0.00000E+00
  0.86600E-01  0.15000E+00  0.00000E+00
  0.38461E+01  0.19156E+01  0.00000E+00
  0.83750E-01  0.10487E+01  0.00000E+00
  0.16314E+00  0.10008E+01  0.00000E+00
  0.16591E+00  0.91287E+00  0.00000E+00
  0.23730E+00  0.95594E+00  0.00000E+00
  0.24013E+00  0.87512E+00  0.00000E+00
  0.30661E+00  0.91623E+00  0.00000E+00
  0.30296E+00  0.99591E+00  0.00000E+00
  0.30938E+00  0.83944E+00  0.00000E+00
  0.37444E+00  0.87856E+00  0.00000E+00
  0.37563E+00  0.80503E+00  0.00000E+00
  0.43612E+00  0.84332E+00  0.00000E+00
  0.43924E+00  0.77347E+00  0.00000E+00
  0.49710E+00  0.80859E+00  0.00000E+00
  0.50063E+00  0.74182E+00  0.00000E+00
  0.55658E+00  0.77549E+00  0.00000E+00
[...]
 POINT_DATA         1810
  
 SCALARS WL      float 1
 LOOKUP_TABLE default
  0.13032E-01
  0.19508E-02
 -0.88137E-04
  0.15121E-01
 -0.22735E-01
  0.26685E-01
 -0.27203E-01
  0.13218E-01
  0.13546E-01
  0.13804E-01
  0.13881E-01
  0.13687E-01
  0.13188E-01
  0.12336E-01
  0.11121E-01
  0.97412E-02
  0.82962E-02
  0.69119E-02
  0.56180E-02
  0.46165E-02
  0.39319E-02
  0.36832E-02
  0.38556E-02
  0.43674E-02
  0.51574E-02
  0.61391E-02
  0.71229E-02
  0.78995E-02
  0.83725E-02
  0.83836E-02
  0.80470E-02
  0.73729E-02
  0.65939E-02
  0.58836E-02
  0.53345E-02
  0.49720E-02
  0.50033E-02
  0.51838E-02
  0.58096E-02
  0.65682E-02
  0.73465E-02
  0.79684E-02
  0.80558E-02
  0.73892E-02
  0.58571E-02
  0.36279E-02
  0.00000E+00
  0.00000E+00
  0.00000E+00
  0.00000E+00
  0.00000E+00
  0.00000E+00
  0.00000E+00
  0.00000E+00
  0.00000E+00
  0.00000E+00
  0.00000E+00
  0.00000E+00
  0.00000E+00
  0.00000E+00
  0.00000E+00
  0.00000E+00
  0.00000E+00
  0.00000E+00
  0.00000E+00
 -0.25526E-03
 -0.23217E-03
  0.10220E-03
  0.66708E-03
  0.15464E-02
  0.25733E-02
  0.38635E-02
  0.52616E-02
  0.64627E-02
  0.74152E-02
  0.77575E-02
  0.75594E-02
  0.69703E-02
  0.63531E-02
  0.56413E-02
  0.50724E-02
  0.45886E-02
  0.41538E-02
  0.38001E-02
  0.37039E-02
  0.38097E-02
  0.40105E-02
  0.42792E-02
  0.46412E-02
  0.50799E-02
  0.57251E-02
  0.65916E-02
  0.74636E-02
  0.84540E-02
  0.94064E-02
  0.10332E-01
  0.11200E-01
  0.11950E-01
  0.12582E-01
  0.13118E-01
  0.13609E-01
  0.14044E-01
  0.14472E-01
  0.14882E-01
  0.15174E-01
  0.15230E-01
  0.15309E-01
  0.15399E-01
  0.15490E-01
  0.15551E-01
  0.15563E-01
  0.15511E-01
  0.15383E-01
  0.15186E-01
  0.14930E-01
  0.14634E-01
  0.14309E-01
  0.13994E-01
  0.13708E-01
  0.13471E-01
  0.13271E-01
  0.13125E-01
  0.13035E-01
 -0.11169E-01
 -0.67487E-02
 -0.31889E-02
 -0.10134E-02
  0.23983E-02
  0.48771E-02
  0.55092E-02
  0.74087E-02
  0.90565E-02
  0.10585E-01
  0.11702E-01
  0.13389E-01
  0.14651E-01
  0.16778E-01
  0.18220E-01
  0.20120E-01
  0.23217E-01
  0.26214E-01
  0.23050E-01
  0.21810E-01
  0.19646E-01
  0.18747E-01
  0.16710E-01
  0.15831E-01
  0.14216E-01
  0.12950E-01
  0.11595E-01
  0.99619E-02
  0.82194E-02
  0.63850E-02
  0.40418E-02
  0.77311E-03
 -0.31224E-02
 -0.90609E-02
 -0.34492E-01
 -0.31382E-01
 -0.29302E-01
 -0.29341E-01
 -0.31525E-01
 -0.34742E-01
 -0.38047E-01
 -0.39679E-01
 -0.39140E-01
 -0.36467E-01
 -0.32865E-01
 -0.29872E-01
 -0.31163E-01
 -0.30697E-01
  0.81295E-02
  0.40853E-02
  0.21036E-01
  0.11191E-01
  0.26339E-03
  0.75260E-02
  0.62367E-02
  0.59711E-02
  0.50879E-02
  0.23486E-01
  0.16308E-01
  0.91230E-02
 -0.51343E-02
 -0.34485E-03
  0.48016E-02
  0.12788E-01
  0.40696E-02
  0.14215E-01
  0.37168E-02
  0.89016E-02
  0.32637E-02
  0.32018E-02
  0.15384E-01
  0.12916E-01
  0.15048E-01
 -0.56663E-02
  0.70226E-02
  0.15501E-01
  0.64470E-02
 -0.82680E-02
 -0.40608E-01
 -0.33691E-01
  0.10876E-01
  0.52810E-02
  0.78542E-02
  0.78154E-02
  0.13489E-01
  0.41337E-03
  0.13865E-01
 -0.20723E-02
  0.27081E-02
  0.15386E-01
  0.13839E-01
  0.15176E-01
  0.50386E-02
  0.66949E-02
  0.82533E-02
  0.37538E-02
  0.49602E-02
  0.52245E-02
  0.58707E-02
  0.72428E-02
  0.24424E-02
  0.20480E-01
  0.13503E-01
 -0.37480E-01
  0.54966E-02
  0.15030E-01
  0.47680E-02
  0.13243E-01
 -0.38322E-03
  0.15247E-01
  0.15122E-01
  0.14944E-01
  0.15037E-01
  0.14859E-01
  0.14957E-01
  0.15137E-01
  0.14758E-01
  0.14860E-01
  0.14620E-01
  0.14707E-01
  0.14432E-01
  0.14470E-01
  0.14152E-01
  0.14131E-01
  0.13764E-01
  0.13647E-01
  0.13274E-01
  0.13017E-01
  0.14860E-01
  0.12693E-01
  0.12271E-01
  0.12722E-01
  0.11788E-01
  0.11401E-01
  0.10712E-01
  0.10433E-01
  0.95770E-02
  0.94045E-02
  0.83868E-02
  0.85377E-02
  0.71985E-02
  0.72007E-02
  0.58632E-02
  0.60722E-02
  0.46819E-02
  0.13463E-01
  0.12365E-01
  0.50479E-02
  0.35918E-02
  0.29260E-02
  0.19004E-02
  0.27589E-02
  0.12794E-02
  0.79120E-04
 -0.25724E-03
 -0.18115E-02
 -0.17481E-02
 -0.18349E-03
 -0.12478E-02
 -0.31985E-02
 -0.21582E-02
 -0.45689E-02
 -0.27246E-02
 -0.55583E-02
 -0.26481E-02
 -0.59421E-02
 -0.19896E-02
 -0.53804E-02
 -0.52239E-03
 -0.38756E-02
  0.12285E-02
 -0.23158E-02
  0.21961E-02
 -0.17749E-02
  0.17123E-02
 -0.40261E-02
 -0.16225E-02
  0.42365E-02
  0.62000E-03
 -0.65916E-02
 -0.38617E-02
  0.23544E-02
 -0.22257E-02
 -0.10510E-01
  0.26978E-02
 -0.29718E-02
  0.12213E-02
  0.11232E-02
 -0.58272E-02
 -0.87788E-02
 -0.12436E-01
 -0.12826E-01
 -0.15763E-01
 -0.13718E-01
 -0.14232E-01
 -0.94628E-02
 -0.81740E-02
 -0.11368E-01
 -0.60422E-02
 -0.24063E-02
 -0.21535E-02
  0.10072E-02
  0.69083E-04
 -0.29705E-02
 -0.17174E-02
  0.15504E-02
 -0.51580E-03
 -0.54581E-03
  0.27376E-02
  0.69982E-03
 -0.29549E-02
 -0.17462E-02
  0.12198E-02
 -0.16246E-02
 -0.77613E-02
  0.59378E-03
 -0.38342E-02
 -0.42883E-02
  0.62842E-02
 -0.44535E-02
 -0.56645E-02
 -0.36318E-02
 -0.36733E-02
  0.43293E-02
  0.77988E-02
  0.61862E-02
 -0.51015E-02
 -0.77496E-02
 -0.10997E-01
  0.73267E-02
 -0.12416E-02
  0.80371E-02
  0.72828E-02
  0.10279E-01
  0.63085E-02
 -0.28931E-02
  0.34497E-03
 -0.79640E-02
  0.78557E-02
  0.76503E-02
 -0.73091E-03
  0.20036E-02
  0.28169E-02
  0.70208E-02
  0.81114E-02
  0.75711E-02
  0.73288E-02
  0.76012E-02
  0.70332E-02
  0.69232E-02
  0.63849E-02
  0.64412E-03
 -0.22565E-02
  0.26421E-02
  0.14134E-01
  0.14419E-01
  0.76477E-02
  0.71598E-02
 -0.13985E-02
  0.22041E-02
  0.76999E-02
  0.71972E-02
  0.78033E-02
  0.75725E-02
  0.71227E-02
 -0.79875E-02
 -0.50405E-02
  0.34007E-02
  0.24813E-02
  0.47032E-02
  0.39316E-02
  0.53839E-02
  0.48905E-02
  0.31429E-02
  0.44934E-02
  0.28456E-02
  0.45920E-02
  0.35306E-02
  0.57154E-02
  0.53414E-02
  0.49482E-02
  0.22202E-02
  0.60854E-02
  0.64120E-02
  0.62868E-02
  0.40720E-02
 -0.10966E-01
 -0.70811E-02
 -0.73753E-02
 -0.38574E-02
 -0.26505E-02
 -0.10792E-03
  0.13949E-02
  0.31019E-02
  0.14945E-02
 -0.79300E-03
  0.27850E-02
  0.91315E-03
  0.34334E-02
  0.17688E-02
  0.32984E-02
  0.11899E-02
  0.27264E-02
  0.17705E-03
  0.20405E-02
 -0.57138E-03
 -0.43364E-02
 -0.49392E-02
 -0.56320E-03
 -0.37209E-02
  0.15166E-03
 -0.15768E-02
 -0.69912E-02
 -0.26191E-02
  0.26198E-03
 -0.27074E-04
 -0.13760E-02
  0.93256E-03
  0.18208E-02
  0.94458E-03
  0.11533E-02
  0.63029E-03
 -0.31225E-03
 -0.11764E-05
 -0.15903E-02
 -0.14875E-04
 -0.14459E-02
  0.86165E-03
  0.56072E-03
  0.25945E-02
  0.29579E-02
  0.46464E-02
  0.54593E-02
  0.66047E-02
  0.76411E-02
  0.19096E-03
  0.11046E-02
  0.26462E-02
  0.82878E-02
  0.93853E-02
  0.90624E-02
  0.10605E-01
  0.10491E-01
  0.11846E-01
  0.11691E-01
  0.12849E-01
  0.12461E-01
  0.13455E-01
  0.14155E-01
  0.14418E-01
  0.13764E-01
  0.14542E-01
  0.15302E-01
  0.15216E-01
  0.16057E-01
  0.15740E-01
  0.15033E-01
  0.15411E-01
  0.16081E-01
  0.15650E-01
  0.16225E-01
  0.14851E-01
  0.15742E-01
  0.16184E-01
  0.15716E-01
  0.15410E-01
  0.16838E-01
  0.16233E-01
  0.87553E-02
  0.10360E-01
 -0.11682E-01
  0.16018E-01
  0.16720E-01
  0.15640E-01
  0.16263E-01
  0.16908E-01
 -0.27640E-02
 -0.75079E-03
 -0.76470E-02
 -0.11362E-01
 -0.55199E-02
 -0.20760E-01
 -0.15776E-01
 -0.32845E-01
  0.42681E-02
  0.23422E-02
 -0.35869E-01
 -0.48020E-01
 -0.44549E-01
 -0.56681E-01
 -0.56699E-01
 -0.61131E-01
 -0.16991E-01
  0.52799E-02
 -0.14158E-01
  0.96366E-02
  0.45803E-02
  0.61635E-02
  0.54702E-02
 -0.92574E-02
  0.13915E-01
  0.13203E-01
  0.13407E-01
  0.53980E-02
  0.65805E-02
  0.57035E-02
  0.54035E-03
  0.21322E-02
  0.36226E-02
 -0.36886E-02
  0.68421E-02
  0.60148E-02
  0.16716E-02
  0.20019E-02
  0.55372E-02
  0.67501E-02
 -0.57330E-01
 -0.58892E-01
 -0.59684E-01
 -0.55575E-01
 -0.78563E-03
  0.46477E-02
  0.84421E-02
  0.10384E-01
  0.15698E-03
  0.34568E-02
  0.16355E-01
  0.16956E-01
  0.17709E-01
  0.17705E-01
  0.16808E-01
  0.17512E-01
  0.59493E-02
  0.12757E-02
 -0.52416E-01
 -0.40118E-01
  0.59293E-02
  0.86911E-02
  0.55912E-02
  0.46190E-02
  0.46241E-02
  0.38370E-02
  0.39611E-02
  0.33417E-02
  0.47973E-02
  0.27211E-02
 -0.77299E-03
 -0.23637E-03
 -0.45311E-02
 -0.28098E-02
  0.14995E-02
  0.58577E-03
  0.72133E-02
  0.68714E-02
  0.58565E-02
  0.87466E-02
  0.75232E-02
  0.90337E-02
  0.78372E-02
  0.94790E-02
  0.61308E-02
  0.63569E-02
  0.45264E-02
  0.46341E-02
  0.26386E-02
  0.66685E-02
  0.16446E-01
  0.16734E-01
  0.17713E-01
  0.16770E-01
  0.28288E-02
  0.77042E-02
 -0.49694E-01
  0.26672E-02
  0.36845E-03
  0.64218E-03
 -0.19266E-02
 -0.57078E-03
 -0.25492E-02
  0.63312E-02
  0.11953E-01
  0.75389E-02
  0.18711E-01
  0.26791E-03
  0.12249E-01
  0.13452E-01
  0.60785E-02
 -0.16759E-02
  0.15933E-01
  0.15722E-01
  0.16493E-01
  0.15226E-01
  0.15781E-01
  0.73138E-02
  0.14384E-01
  0.14692E-01
  0.12706E-01
  0.80122E-02
  0.79379E-02
  0.89339E-02
 -0.44929E-01
  0.98074E-02
 -0.37061E-02
  0.13010E-01
 -0.54246E-01
 -0.47705E-01
 -0.48193E-01
 -0.40533E-01
  0.27708E-02
  0.29483E-02
  0.15904E-01
  0.57597E-02
 -0.37374E-01
 -0.30795E-01
 -0.32112E-01
 -0.24211E-01
  0.73636E-02
  0.13777E-01
  0.14885E-01
  0.46026E-02
  0.44490E-02
  0.38470E-02
 -0.24634E-01
 -0.18409E-01
 -0.17597E-01
 -0.13292E-01
 -0.69713E-02
  0.14873E-01
  0.39170E-02
  0.40149E-02
  0.44834E-02
  0.34543E-03
  0.27908E-02
  0.16102E-01
  0.49704E-02
  0.60644E-02
  0.10080E-02
  0.40878E-02
  0.67188E-02
 -0.45307E-01
 -0.35906E-01
 -0.14771E-01
 -0.19546E-01
 -0.96961E-02
  0.81131E-02
  0.45478E-02
  0.61325E-02
 -0.47204E-02
  0.58067E-02
  0.22002E-02
  0.13253E-01
  0.13292E-01
  0.13164E-01
  0.11863E-01
  0.11727E-01
  0.28621E-02
  0.15970E-02
  0.76649E-02
  0.48946E-02
  0.51290E-02
  0.40826E-02
  0.61609E-02
 -0.12777E-02
  0.18480E-01
  0.19763E-01
 -0.24636E-01
  0.28998E-02
  0.27763E-02
  0.31684E-02
  0.67520E-02
 -0.17983E-01
 -0.13995E-01
  0.19139E-01
  0.20560E-01
  0.19454E-01
  0.20666E-01
  0.44356E-02
  0.13559E-01
  0.13285E-01
  0.13754E-01
  0.13517E-01
  0.13941E-01
 -0.13532E-01
  0.90235E-02
  0.10053E-01
  0.56783E-02
  0.53773E-02
 -0.42178E-01
  0.16570E-01
  0.15744E-01
  0.10055E-01
  0.10977E-01
  0.10989E-01
  0.11777E-01
  0.11774E-01
  0.12452E-01
  0.12462E-01
  0.13006E-01
  0.13017E-01
  0.13438E-01
  0.13451E-01
  0.13730E-01
  0.13776E-01
  0.13915E-01
  0.13872E-01
  0.13468E-01
  0.62901E-02
  0.15311E-01
  0.16334E-01
  0.15688E-01
  0.16966E-01
  0.17751E-01
  0.19259E-01
  0.20658E-02
  0.12502E-01
  0.65602E-02
  0.12778E-01
  0.14006E-01
  0.14020E-01
  0.14150E-01
  0.63782E-02
  0.55516E-02
  0.32343E-02
  0.10390E-01
  0.13097E-01
  0.67731E-02
  0.14629E-01
  0.77297E-02
  0.73748E-02
  0.69270E-02
 -0.19774E-02
  0.89693E-02
 -0.40715E-02
 -0.57925E-02
 -0.56560E-01
 -0.50776E-01
 -0.51808E-01
  0.19923E-01
 -0.35709E-01
 -0.10512E-01
  0.57955E-02
 -0.30016E-01
 -0.11911E-01
 -0.79320E-02
 -0.94015E-02
 -0.96957E-02
  0.11007E-01
  0.76452E-02
  0.99114E-02
  0.10762E-01
  0.29165E-02
  0.32904E-02
  0.23370E-02
 -0.13697E-01
 -0.25520E-02
 -0.12248E-01
 -0.72616E-02
 -0.16850E-01
 -0.13164E-01
  0.13764E-01
  0.14124E-01
  0.14299E-01
  0.14448E-01
  0.14626E-01
  0.14334E-01
  0.14744E-01
  0.14886E-01
  0.14067E-01
  0.56617E-02
  0.54381E-02
  0.55035E-02
  0.40986E-02
  0.11427E-01
  0.10119E-01
  0.96812E-02
  0.84308E-02
  0.34011E-02
  0.35523E-02
  0.31313E-02
  0.33234E-02
  0.13267E-01
  0.13011E-01
  0.86495E-02
  0.19982E-01
 -0.39461E-01
 -0.32908E-01
  0.56288E-03
 -0.23220E-02
  0.31016E-02
 -0.82842E-02
  0.62398E-02
  0.56307E-02
 -0.27996E-01
  0.93037E-02
  0.45548E-02
  0.40055E-02
  0.37860E-02
  0.33604E-02
  0.25051E-02
  0.27931E-02
  0.38094E-02
  0.33545E-02
  0.45290E-02
  0.43544E-02
  0.56890E-02
  0.33129E-02
 -0.24276E-01
 -0.21247E-01
 -0.21482E-01
  0.58442E-02
  0.64004E-02
 -0.21973E-01
 -0.15750E-01
 -0.15318E-01
  0.18118E-01
  0.18562E-01
  0.18062E-01
  0.58074E-02
  0.58745E-02
 -0.41777E-02
 -0.59469E-02
 -0.44483E-02
  0.45284E-02
  0.60102E-02
  0.35982E-02
 -0.18425E-02
 -0.30274E-02
 -0.43076E-03
 -0.41021E-02
 -0.30255E-02
 -0.43644E-02
 -0.33029E-02
 -0.54855E-03
 -0.88385E-03
 -0.47695E-02
  0.19859E-02
 -0.17631E-02
 -0.60526E-02
 -0.81769E-02
 -0.86706E-02
  0.13185E-01
  0.11829E-01
  0.43176E-02
  0.54706E-02
 -0.19367E-02
 -0.49213E-02
 -0.26769E-02
 -0.98126E-03
  0.51172E-02
  0.15841E-01
  0.15574E-01
  0.15451E-01
  0.53495E-02
 -0.18712E-01
 -0.21643E-01
  0.35501E-02
 -0.93218E-02
  0.52150E-02
  0.51103E-02
  0.22297E-02
 -0.44061E-03
  0.17047E-02
  0.48235E-03
  0.64789E-02
  0.14571E-01
 -0.61384E-02
 -0.77510E-02
 -0.29448E-02
 -0.55467E-02
  0.91966E-02
  0.12450E-01
  0.12113E-01
  0.87726E-02
 -0.19374E-01
  0.22397E-01
  0.81536E-02
  0.12504E-01
  0.60157E-02
  0.66464E-02
  0.72715E-02
  0.72402E-02
  0.13885E-01
  0.34130E-02
  0.35533E-02
 -0.20687E-02
  0.59246E-02
  0.15506E-02
  0.13035E-01
  0.13513E-01
  0.13757E-01
 -0.28351E-01
 -0.54608E-02
 -0.64882E-02
  0.55679E-02
  0.61669E-02
  0.61370E-02
  0.15590E-01
  0.15222E-01
  0.10541E-02
  0.40383E-02
 -0.33464E-01
  0.68331E-02
  0.73756E-02
  0.64462E-02
  0.13935E-01
  0.10216E-01
  0.80341E-02
  0.12699E-01
  0.14436E-01
  0.15500E-01
 -0.96694E-02
 -0.10859E-02
  0.67972E-02
  0.16152E-01
 -0.46579E-01
 -0.42983E-01
 -0.46205E-01
  0.77268E-02
  0.77790E-02
  0.15117E-01
 -0.61081E-02
 -0.63646E-02
  0.53223E-02
  0.54662E-02
  0.54462E-02
  0.57758E-02
 -0.15679E-01
 -0.11248E-01
  0.29144E-02
  0.20833E-02
  0.81016E-02
  0.79228E-02
  0.92831E-02
  0.36746E-02
  0.37087E-02
  0.15017E-01
  0.14992E-01
  0.15087E-01
  0.15060E-01
  0.15196E-01
  0.15249E-01
  0.15281E-01
  0.15298E-01
  0.15304E-01
  0.59196E-02
  0.35591E-02
 -0.64199E-02
  0.54497E-02
  0.59570E-02
  0.63861E-02
  0.10498E-01
  0.34323E-02
  0.29515E-02
  0.65388E-02
  0.14238E-01
  0.14338E-02
 -0.11454E-01
  0.11521E-01
 -0.79979E-04
 -0.17927E-01
 -0.52189E-02
  0.55176E-02
  0.54411E-02
  0.15393E-01
  0.15342E-01
 -0.40481E-01
 -0.70327E-02
 -0.77662E-02
  0.26553E-02
  0.63194E-02
  0.14449E-01
 -0.21744E-01
 -0.13297E-01
 -0.13692E-01
 -0.78771E-02
 -0.75024E-02
 -0.56026E-02
 -0.45779E-01
 -0.39523E-01
  0.14457E-01
  0.14421E-01
  0.26226E-02
  0.18773E-02
  0.11973E-01
  0.27875E-02
  0.50021E-02
  0.13910E-01
  0.14945E-01
  0.41137E-02
  0.15397E-01
  0.20842E-02
  0.67430E-02
  0.10925E-01
  0.10045E-01
  0.38403E-02
  0.51739E-02
  0.34142E-02
  0.38589E-02
  0.41834E-02
  0.48356E-02
  0.41155E-02
 -0.27238E-01
  0.55754E-02
  0.68984E-02
  0.15187E-01
 -0.18873E-01
  0.62401E-02
  0.56989E-02
  0.56411E-02
  0.36542E-02
  0.14318E-01
  0.82063E-02
  0.83277E-02
  0.84285E-02
  0.83498E-02
  0.12653E-01
 -0.33964E-02
  0.11873E-01
  0.52138E-02
 -0.38226E-01
  0.14758E-01
  0.13355E-01
  0.15272E-01
  0.37202E-02
  0.39649E-02
  0.30224E-02
  0.38078E-02
  0.42371E-02
  0.41176E-02
  0.45786E-02
  0.41708E-02
  0.46491E-02
  0.51171E-02
  0.13799E-01
  0.18891E-01
  0.20479E-01
  0.17522E-01
  0.50632E-02
  0.78061E-02
  0.10114E-01
  0.11077E-01
  0.12036E-01
 -0.63104E-02
 -0.41990E-02
 -0.54985E-01
 -0.12064E-01
 -0.34017E-02
 -0.30636E-01
  0.13656E-01
  0.43206E-02
  0.38237E-02
  0.63121E-02
 -0.39733E-02
  0.66164E-02
  0.22136E-01
 -0.23172E-01
  0.14427E-01
 -0.24459E-02
  0.21452E-01
  0.21743E-01
  0.19558E-01
  0.20249E-01
  0.22060E-01
  0.20243E-01
  0.18803E-01
 -0.47647E-02
  0.92395E-02
  0.83475E-02
  0.56499E-02
  0.13803E-01
  0.50089E-02
  0.70516E-02
  0.90374E-02
  0.12779E-02
 -0.17408E-02
  0.96725E-02
 -0.10858E-01
 -0.40761E-02
 -0.37637E-01
 -0.33139E-01
 -0.27430E-01
 -0.40831E-01
 -0.23237E-01
  0.46987E-02
  0.14035E-01
  0.12823E-01
  0.15829E-01
  0.16924E-01
  0.18487E-01
  0.17402E-01
 -0.21070E-01
  0.21017E-02
  0.10982E-01
  0.67402E-02
  0.37995E-02
  0.14225E-01
  0.22088E-01
  0.72347E-02
  0.27742E-02
  0.14624E-01
  0.13813E-01
  0.14812E-01
  0.14522E-01
 -0.29108E-01
  0.55358E-02
  0.11880E-02
 -0.34382E-01
 -0.32007E-01
  0.15253E-01
  0.15106E-01
  0.14997E-01
  0.13521E-01
 -0.62822E-02
  0.11417E-02
  0.23900E-01
  0.24863E-01
  0.22743E-03
  0.16837E-01
  0.13278E-01
 -0.18729E-01
  0.25328E-02
  0.14822E-02
  0.23081E-02
  0.16218E-02
  0.19093E-02
  0.19937E-02
  0.68813E-02
  0.71613E-02
  0.55869E-02
  0.68444E-02
  0.83094E-02
  0.14716E-01
  0.16296E-01
  0.17882E-01
  0.17778E-01
 -0.59424E-02
 -0.98503E-02
 -0.12560E-01
  0.38379E-02
  0.45138E-02
  0.39357E-02
  0.53649E-02
  0.15231E-01
  0.36241E-02
 -0.23050E-01
 -0.97345E-02
 -0.12377E-01
 -0.20994E-01
 -0.20379E-01
  0.13551E-01
  0.13863E-01
  0.13778E-01
  0.13831E-01
  0.13608E-01
  0.13765E-01
  0.16554E-01
 -0.60048E-03
  0.14120E-02
  0.14862E-01
  0.14937E-01
  0.82612E-02
  0.18834E-02
  0.34137E-02
  0.15179E-01
  0.98022E-02
  0.11116E-01
 -0.82578E-02
  0.26985E-02
 -0.11053E-01
 -0.15098E-01
  0.15325E-01
 -0.22722E-02
  0.37103E-02
  0.41497E-02
  0.49984E-02
  0.51776E-02
 -0.41189E-02
  0.42721E-02
  0.14142E-01
  0.14033E-01
  0.10702E-02
  0.85258E-02
  0.17334E-01
 -0.49676E-02
  0.18862E-01
  0.20275E-01
 -0.16244E-01
  0.13398E-01
  0.14090E-01
  0.14261E-01
  0.14477E-01
  0.59645E-02
  0.15241E-01
  0.38012E-02
  0.13524E-01
  0.13549E-01
  0.13346E-01
 -0.14700E-01
 -0.29511E-01
  0.68546E-03
 -0.66327E-04
  0.17307E-02
  0.56892E-02
  0.63566E-02
  0.10485E-02
  0.89667E-02
  0.98918E-02
  0.17705E-01
  0.59577E-02
  0.56238E-02
  0.11641E-01
  0.11450E-01
  0.12189E-01
  0.12336E-01
  0.12844E-01
  0.55428E-02
  0.75322E-02
  0.55998E-02
  0.59520E-02
  0.64829E-02
  0.36991E-02
  0.44407E-02
 -0.34708E-02
 -0.60140E-02
  0.61789E-02
  0.54390E-02
  0.68056E-02
  0.75516E-02
  0.81876E-02
  0.82067E-03
  0.11106E-01
  0.89429E-02
  0.13036E-01
  0.13127E-01
  0.19487E-01
 -0.92496E-02
  0.66191E-02
  0.43468E-02
  0.15264E-01
 -0.68529E-02
  0.59378E-02
  0.69068E-02
  0.77711E-02
  0.80268E-02
  0.79077E-02
  0.76812E-02
  0.75083E-02
  0.71381E-02
 -0.59405E-01
 -0.37311E-02
  0.45018E-02
  0.15092E-01
  0.14808E-01
  0.15421E-01
  0.84264E-02
  0.66687E-02
  0.47930E-02
  0.15270E-01
  0.13903E-01
  0.77564E-02
  0.79684E-02
  0.69943E-02
 -0.60069E-02
 -0.74895E-02
 -0.44953E-02
 -0.10688E-02
  0.18550E-01
 -0.92057E-02
 -0.60980E-02
 -0.36350E-02
 -0.49079E-02
 -0.43025E-02
  0.36633E-02
  0.58558E-02
 -0.13876E-02
 -0.24136E-02
 -0.27472E-02
  0.76658E-02
  0.70210E-02
  0.74037E-02
  0.62684E-02
  0.14199E-01
 -0.21488E-02
  0.64932E-02
  0.17405E-01
  0.16233E-02
  0.54989E-02
  0.13855E-02
 -0.12377E-03
 -0.45294E-03
 -0.52284E-03
 -0.10860E-02
  0.50065E-02
  0.62193E-02
  0.54537E-02
  0.21073E-02
  0.31132E-02
  0.42723E-02
  0.46423E-02
  0.68998E-02
  0.31430E-02
  0.28993E-02
 -0.20210E-01
  0.42371E-02
  0.42441E-02
  0.11041E-01
  0.61358E-02
  0.12351E-02
  0.51060E-03
  0.44026E-02
 -0.67535E-02
 -0.64900E-02
  0.18872E-02
  0.43645E-02
 -0.12183E-02
 -0.52042E-02
  0.11906E-02
  0.76236E-02
 -0.57060E-02
 -0.69093E-02
  0.91749E-03
  0.36975E-02
 -0.16352E-02
  0.10008E-01
 -0.73616E-02
  0.41221E-02
 -0.79267E-02
 -0.93136E-02
 -0.49035E-02
  0.54684E-02
  0.28314E-02
 -0.14724E-01
 -0.55976E-02
  0.59787E-02
 -0.33818E-02
 -0.39471E-02
 -0.24189E-01
  0.76891E-02
  0.65916E-02
  0.11664E-01
  0.34650E-02
  0.45144E-02
 -0.87970E-02
  0.12201E-02
  0.56999E-02
  0.57500E-02
 -0.43367E-02
  0.32846E-02
  0.69216E-02
  0.59391E-02
 -0.31319E-03
 -0.27805E-01
 -0.21245E-01
  0.53451E-02
 -0.76787E-02
  0.56182E-02
  0.59442E-02
 -0.10564E-01
  0.28962E-02
 -0.48935E-02
 -0.13138E-01
  0.66473E-02
 -0.92144E-03
  0.14703E-01
 -0.30890E-02
 -0.27210E-01
  0.11822E-01
 -0.18405E-02
  0.48645E-02
  0.60689E-02
  0.83345E-02
 -0.29028E-02
  0.47860E-02
  0.15206E-01
 -0.44143E-02
  0.18819E-01
  0.80522E-02
  0.23747E-01
  0.18944E-01
  0.79249E-02
  0.17398E-01
 -0.33040E-01
 -0.30812E-01
  0.98941E-02
  0.12662E-01
  0.81776E-02
  0.16989E-01
 -0.17563E-02
  0.56397E-02
 -0.27303E-01
 -0.35454E-01
 -0.94301E-02
  0.12930E-01
 -0.13604E-01
 -0.38995E-01
 -0.73968E-02
  0.38128E-03
  0.47384E-02
 -0.40024E-01
 -0.41501E-01