# vtk DataFile Version 2.0
Unstructured Grid UFVM-ECOMOD
ASCII
DATASET UNSTRUCTURED_GRID
 POINTS         1724  float
  0.00000E+00  0.00000E+00  0.00000E+00
  0.40000E+01  0.00000E+00  0.00000E+00
  0.40000E+01  0.20000E+01  0.00000E+00
  0.00000E+00  0.20000E+01  0.00000E+00
  0.15750E+01  0.10287E+01  0.00000E+00
  0.15677E+01  0.97091E+00  0.00000E+00
  0.15461E+01  0.91674E+00  0.00000E+00
  0.15118E+01  0.86961E+00  0.00000E+00
  0.14667E+01  0.83248E+00  0.00000E+00
  0.14138E+01  0.80767E+00  0.00000E+00
  0.13563E+01  0.79675E+00  0.00000E+00
  0.12979E+01  0.80041E+00  0.00000E+00
  0.12423E+01  0.81842E+00  0.00000E+00
  0.11929E+01  0.84963E+00  0.00000E+00
  0.11529E+01  0.89210E+00  0.00000E+00
  0.11247E+01  0.94315E+00  0.00000E+00
  0.11102E+01  0.99958E+00  0.00000E+00
  0.11102E+01  0.10578E+01  0.00000E+00
  0.11247E+01  0.11143E+01  0.00000E+00
  0.11529E+01  0.11653E+01  0.00000E+00
  0.11929E+01  0.12078E+01  0.00000E+00
  0.12423E+01  0.12390E+01  0.00000E+00
  0.12979E+01  0.12570E+01  0.00000E+00
  0.13563E+01  0.12607E+01  0.00000E+00
  0.14138E+01  0.12497E+01  0.00000E+00
  0.14667E+01  0.12249E+01  0.00000E+00
  0.15118E+01  0.11878E+01  0.00000E+00
  0.15461E+01  0.11407E+01  0.00000E+00
  0.15677E+01  0.10865E+01  0.00000E+00
  0.10000E+00  0.00000E+00  0.00000E+00
  0.20000E+00  0.00000E+00  0.00000E+00
  0.30000E+00  0.00000E+00  0.00000E+00
  0.40000E+00  0.00000E+00  0.00000E+00
  0.50000E+00  0.00000E+00  0.00000E+00
  0.60000E+00  0.00000E+00  0.00000E+00
  0.70000E+00  0.00000E+00  0.00000E+00
  0.80000E+00  0.00000E+00  0.00000E+00
  0.90000E+00  0.00000E+00  0.00000E+00
  0.10000E+01  0.00000E+00  0.00000E+00
  0.11000E+01  0.00000E+00  0.00000E+00
  0.12000E+01  0.00000E+00  0.00000E+00
  0.13000E+01  0.00000E+00  0.00000E+00
  0.14000E+01  0.00000E+00  0.00000E+00
  0.15000E+01  0.00000E+00  0.00000E+00
  0.16000E+01  0.00000E+00  0.00000E+00
  0.17000E+01  0.00000E+00  0.00000E+00
  0.18000E+01  0.00000E+00  0.00000E+00
  0.19000E+01  0.00000E+00  0.00000E+00
  0.20000E+01  0.00000E+00  0.00000E+00
  0.21000E+01  0.00000E+00  0.00000E+00
  0.22000E+01  0.00000E+00  0.00000E+00
  0.23000E+01  0.00000E+00  0.00000E+00
  0.24000E+01  0.00000E+00  0.00000E+00
  0.25000E+01  0.00000E+00  0.00000E+00
  0.26000E+01  0.00000E+00  0.00000E+00
  0.27000E+01  0.00000E+00  0.00000E+00
  0.28000E+01  0.00000E+00  0.00000E+00
  0.29000E+01  0.00000E+00  0.00000E+00
  0.30000E+01  0.00000E+00  0.00000E+00
  0.31000E+01  0.00000E+00  0.00000E+00
  0.32000E+01  0.00000E+00  0.00000E+00
  0.33000E+01  0.00000E+00  0.00000E+00
  0.34000E+01  0.00000E+00  0.00000E+00
  0.35000E+01  0.00000E+00  0.00000E+00
  0.36000E+01  0.00000E+00  0.00000E+00
  0.37000E+01  0.00000E+00  0.00000E+00
  0.38000E+01  0.00000E+00  0.00000E+00
  0.39000E+01  0.00000E+00  0.00000E+00
  0.40000E+01  0.10000E+00  0.00000E+00
  0.40000E+01  0.20000E+00  0.00000E+00
  0.40000E+01  0.30000E+00  0.00000E+00
  0.40000E+01  0.40000E+00  0.00000E+00
  0.40000E+01  0.50000E+00  0.00000E+00
  0.40000E+01  0.60000E+00  0.00000E+00
  0.40000E+01  0.70000E+00  0.00000E+00
  0.40000E+01  0.80000E+00  0.00000E+00
  0.40000E+01  0.90000E+00  0.00000E+00
  0.40000E+01  0.10000E+01  0.00000E+00
  0.40000E+01  0.11000E+01  0.00000E+00
  0.40000E+01  0.12000E+01  0.00000E+00
  0.40000E+01  0.13000E+01  0.00000E+00
  0.40000E+01  0.14000E+01  0.00000E+00
  0.40000E+01  0.15000E+01  0.00000E+00
  0.40000E+01  0.16000E+01  0.00000E+00
  0.40000E+01  0.17000E+01  0.00000E+00
  0.40000E+01  0.18000E+01  0.00000E+00
  0.40000E+01  0.19000E+01  0.00000E+00
  0.39000E+01  0.20000E+01  0.00000E+00
  0.38000E+01  0.20000E+01  0.00000E+00
  0.37000E+01  0.20000E+01  0.00000E+00
  0.36000E+01  0.20000E+01  0.00000E+00
  0.35000E+01  0.20000E+01  0.00000E+00
  0.34000E+01  0.20000E+01  0.00000E+00
  0.33000E+01  0.20000E+01  0.00000E+00
  0.32000E+01  0.20000E+01  0.00000E+00
  0.31000E+01  0.20000E+01  0.00000E+00
  0.30000E+01  0.20000E+01  0.00000E+00
  0.29000E+01  0.20000E+01  0.00000E+00
  0.28000E+01  0.20000E+01  0.00000E+00
  0.27000E+01  0.20000E+01  0.00000E+00
  0.26000E+01  0.20000E+01  0.00000E+00
  0.25000E+01  0.20000E+01  0.00000E+00
  0.24000E+01  0.20000E+01  0.00000E+00
  0.23000E+01  0.20000E+01  0.00000E+00
  0.22000E+01  0.20000E+01  0.00000E+00
  0.21000E+01  0.20000E+01  0.00000E+00
  0.20000E+01  0.20000E+01  0.00000E+00
  0.19000E+01  0.20000E+01  0.00000E+00
  0.18000E+01  0.20000E+01  0.00000E+00
  0.17000E+01  0.20000E+01  0.00000E+00
  0.16000E+01  0.20000E+01  0.00000E+00
  0.15000E+01  0.20000E+01  0.00000E+00
  0.14000E+01  0.20000E+01  0.00000E+00
  0.13000E+01  0.20000E+01  0.00000E+00
  0.12000E+01  0.20000E+01  0.00000E+00
  0.11000E+01  0.20000E+01  0.00000E+00
  0.10000E+01  0.20000E+01  0.00000E+00
  0.90000E+00  0.20000E+01  0.00000E+00
  0.80000E+00  0.20000E+01  0.00000E+00
  0.70000E+00  0.20000E+01  0.00000E+00
  0.60000E+00  0.20000E+01  0.00000E+00
  0.50000E+00  0.20000E+01  0.00000E+00
  0.40000E+00  0.20000E+01  0.00000E+00
  0.30000E+00  0.20000E+01  0.00000E+00
  0.20000E+00  0.20000E+01  0.00000E+00
  0.10000E+00  0.20000E+01  0.00000E+00
  0.00000E+00  0.19000E+01  0.00000E+00
  0.00000E+00  0.18000E+01  0.00000E+00
  0.00000E+00  0.17000E+01  0.00000E+00
  0.00000E+00  0.16000E+01  0.00000E+00
  0.00000E+00  0.15000E+01  0.00000E+00
  0.00000E+00  0.14000E+01  0.00000E+00
  0.00000E+00  0.13000E+01  0.00000E+00
  0.00000E+00  0.12000E+01  0.00000E+00
  0.00000E+00  0.11000E+01  0.00000E+00
  0.00000E+00  0.10000E+01  0.00000E+00
  0.00000E+00  0.90000E+00  0.00000E+00
  0.00000E+00  0.80000E+00  0.00000E+00
  0.00000E+00  0.70000E+00  0.00000E+00
  0.00000E+00  0.60000E+00  0.00000E+00
  0.00000E+00  0.50000E+00  0.00000E+00
  0.00000E+00  0.40000E+00  0.00000E+00
  0.00000E+00  0.30000E+00  0.00000E+00
  0.00000E+00  0.20000E+00  0.00000E+00
  0.00000E+00  0.10000E+00  0.00000E+00
  0.15713E+01  0.99981E+00  0.00000E+00
  0.15569E+01  0.94382E+00  0.00000E+00
  0.15290E+01  0.89318E+00  0.00000E+00
  0.14892E+01  0.85104E+00  0.00000E+00
  0.14402E+01  0.82007E+00  0.00000E+00
  0.13850E+01  0.80221E+00  0.00000E+00
  0.13271E+01  0.79858E+00  0.00000E+00
  0.12701E+01  0.80941E+00  0.00000E+00
  0.12176E+01  0.83402E+00  0.00000E+00
  0.11729E+01  0.87086E+00  0.00000E+00
  0.11388E+01  0.91762E+00  0.00000E+00
  0.11175E+01  0.97136E+00  0.00000E+00
  0.11102E+01  0.10287E+01  0.00000E+00
  0.11175E+01  0.10860E+01  0.00000E+00
  0.11388E+01  0.11398E+01  0.00000E+00
  0.11729E+01  0.11865E+01  0.00000E+00
  0.12176E+01  0.12234E+01  0.00000E+00
  0.12701E+01  0.12480E+01  0.00000E+00
  0.13271E+01  0.12588E+01  0.00000E+00
  0.13850E+01  0.12552E+01  0.00000E+00
  0.14402E+01  0.12373E+01  0.00000E+00
  0.14892E+01  0.12064E+01  0.00000E+00
  0.15290E+01  0.11642E+01  0.00000E+00
  0.15569E+01  0.11136E+01  0.00000E+00
  0.15713E+01  0.10576E+01  0.00000E+00
  0.15994E+01  0.10133E+01  0.00000E+00
  0.15863E+01  0.11089E+01  0.00000E+00
  0.25478E+01  0.10053E+00  0.00000E+00
  0.25434E+01  0.19142E+01  0.00000E+00
  0.11238E+01  0.89266E+00  0.00000E+00
  0.11061E+01  0.11423E+01  0.00000E+00
  0.15575E+01  0.89126E+00  0.00000E+00
  0.10894E+01  0.97917E+00  0.00000E+00
  0.15393E+01  0.11910E+01  0.00000E+00
  0.11627E+01  0.12175E+01  0.00000E+00
  0.14962E+01  0.82262E+00  0.00000E+00
  0.29512E+01  0.95010E-01  0.00000E+00
  0.29494E+01  0.19117E+01  0.00000E+00
  0.39186E+01  0.10466E+01  0.00000E+00
  0.11913E+01  0.82197E+00  0.00000E+00
  0.12788E+01  0.78594E+00  0.00000E+00
  0.21500E+01  0.86600E-01  0.00000E+00
  0.21472E+01  0.19005E+01  0.00000E+00
  0.14041E+01  0.78007E+00  0.00000E+00
  0.14641E+01  0.12550E+01  0.00000E+00
  0.13764E+01  0.12826E+01  0.00000E+00
  0.99450E-01  0.63780E+00  0.00000E+00
  0.92450E-01  0.13422E+01  0.00000E+00
  0.12473E+01  0.12677E+01  0.00000E+00
  0.65677E+00  0.19154E+01  0.00000E+00
  0.86110E-01  0.10467E+01  0.00000E+00
  0.75000E+00  0.86600E-01  0.00000E+00
  0.33379E+01  0.88030E-01  0.00000E+00
  0.33490E+01  0.19201E+01  0.00000E+00
  0.18500E+01  0.86600E-01  0.00000E+00
  0.18441E+01  0.19006E+01  0.00000E+00
  0.38922E+01  0.64055E+00  0.00000E+00
  0.39154E+01  0.13500E+01  0.00000E+00
  0.10564E+01  0.85180E-01  0.00000E+00
  0.94817E+00  0.19249E+01  0.00000E+00
  0.15421E+01  0.85450E-01  0.00000E+00
  0.15479E+01  0.19161E+01  0.00000E+00
  0.12386E+01  0.19130E+01  0.00000E+00
  0.45294E+00  0.85030E-01  0.00000E+00
  0.86890E-01  0.16531E+01  0.00000E+00
  0.36495E+01  0.78620E-01  0.00000E+00
  0.36510E+01  0.19107E+01  0.00000E+00
  0.10846E+01  0.10423E+01  0.00000E+00
  0.15860E+01  0.94842E+00  0.00000E+00
  0.13392E+01  0.77093E+00  0.00000E+00
  0.13108E+01  0.12864E+01  0.00000E+00
  0.87300E-01  0.35008E+00  0.00000E+00
  0.34468E+00  0.19176E+01  0.00000E+00
  0.39135E+01  0.16499E+01  0.00000E+00
  0.39252E+01  0.34254E+00  0.00000E+00
  0.13680E+01  0.88360E-01  0.00000E+00
  0.88350E-01  0.84594E+00  0.00000E+00
  0.23513E+01  0.77830E-01  0.00000E+00
  0.23488E+01  0.19154E+01  0.00000E+00
  0.27481E+01  0.80910E-01  0.00000E+00
  0.31480E+01  0.84140E-01  0.00000E+00
  0.31513E+01  0.19149E+01  0.00000E+00
  0.27502E+01  0.19198E+01  0.00000E+00
  0.39134E+01  0.85000E+00  0.00000E+00
  0.25071E+00  0.86200E-01  0.00000E+00
  0.91130E-01  0.18412E+01  0.00000E+00
  0.38461E+01  0.84360E-01  0.00000E+00
  0.38408E+01  0.19092E+01  0.00000E+00
  0.97440E-01  0.15849E+00  0.00000E+00
  0.15988E+01  0.10458E+01  0.00000E+00
  0.16261E+01  0.10305E+01  0.00000E+00
  0.16281E+01  0.99836E+00  0.00000E+00
  0.16554E+01  0.10148E+01  0.00000E+00
  0.16578E+01  0.98164E+00  0.00000E+00
  0.16863E+01  0.99914E+00  0.00000E+00
  0.16884E+01  0.96239E+00  0.00000E+00
  0.17222E+01  0.98417E+00  0.00000E+00
  0.17231E+01  0.93952E+00  0.00000E+00
  0.17605E+01  0.96435E+00  0.00000E+00
  0.17576E+01  0.10098E+01  0.00000E+00
  0.17991E+01  0.98970E+00  0.00000E+00
  0.17625E+01  0.91931E+00  0.00000E+00
[...]
 POINT_DATA         1724
  
 SCALARS WL      float 1
 LOOKUP_TABLE default
  0.21191E-01
  0.73304E-02
 -0.24327E-03
  0.34498E-01
 -0.43151E-01
 -0.34146E-01
 -0.19335E-01
 -0.95755E-02
 -0.88276E-02
 -0.58839E-02
 -0.46022E-02
 -0.79427E-02
 -0.20827E-03
  0.10152E-01
  0.25983E-01
  0.37215E-01
  0.43932E-01
  0.44057E-01
  0.37346E-01
  0.25008E-01
  0.57114E-02
 -0.17159E-01
 -0.41982E-01
 -0.65867E-01
 -0.61392E-01
 -0.42790E-01
 -0.41768E-01
 -0.42314E-01
 -0.43300E-01
  0.20986E-01
  0.20603E-01
  0.20052E-01
  0.19355E-01
  0.18487E-01
  0.17451E-01
  0.16300E-01
  0.15117E-01
  0.13855E-01
  0.12777E-01
  0.12275E-01
  0.12242E-01
  0.12896E-01
  0.14074E-01
  0.14750E-01
  0.15190E-01
  0.15360E-01
  0.15417E-01
  0.15596E-01
  0.15464E-01
  0.15342E-01
  0.14972E-01
  0.14580E-01
  0.14060E-01
  0.14054E-01
  0.14561E-01
  0.15888E-01
  0.17892E-01
  0.20241E-01
  0.23040E-01
  0.25417E-01
  0.27056E-01
  0.28035E-01
  0.27945E-01
  0.27264E-01
  0.25303E-01
  0.22409E-01
  0.18465E-01
  0.12293E-01
  0.00000E+00
  0.00000E+00
  0.00000E+00
  0.00000E+00
  0.00000E+00
  0.00000E+00
  0.00000E+00
  0.00000E+00
  0.00000E+00
  0.00000E+00
  0.00000E+00
  0.00000E+00
  0.00000E+00
  0.00000E+00
  0.00000E+00
  0.00000E+00
  0.00000E+00
  0.00000E+00
  0.00000E+00
 -0.74648E-03
 -0.12427E-02
 -0.38128E-03
  0.12082E-02
  0.31290E-02
  0.51796E-02
  0.64389E-02
  0.69499E-02
  0.66655E-02
  0.54892E-02
  0.42645E-02
  0.37819E-02
  0.39895E-02
  0.44571E-02
  0.51872E-02
  0.59962E-02
  0.66752E-02
  0.70863E-02
  0.71436E-02
  0.66698E-02
  0.59915E-02
  0.53529E-02
  0.49038E-02
  0.50490E-02
  0.60608E-02
  0.78915E-02
  0.10360E-01
  0.13162E-01
  0.16005E-01
  0.18737E-01
  0.21300E-01
  0.23551E-01
  0.25586E-01
  0.27413E-01
  0.29150E-01
  0.30793E-01
  0.32210E-01
  0.33373E-01
  0.34186E-01
  0.34443E-01
  0.34210E-01
  0.33825E-01
  0.33225E-01
  0.32516E-01
  0.31470E-01
  0.30408E-01
  0.29221E-01
  0.28091E-01
  0.27001E-01
  0.25987E-01
  0.25078E-01
  0.24193E-01
  0.23454E-01
  0.22807E-01
  0.22260E-01
  0.21820E-01
  0.21495E-01
  0.21285E-01
 -0.40652E-01
 -0.26801E-01
 -0.12336E-01
 -0.87199E-02
 -0.80067E-02
 -0.48778E-02
 -0.68482E-02
 -0.68301E-02
  0.34272E-02
  0.18615E-01
  0.32293E-01
  0.41812E-01
  0.44750E-01
  0.41991E-01
  0.32217E-01
  0.15734E-01
 -0.46655E-02
 -0.28834E-01
 -0.55633E-01
 -0.68687E-01
 -0.49697E-01
 -0.42864E-01
 -0.41290E-01
 -0.42829E-01
 -0.43726E-01
 -0.39801E-01
 -0.41766E-01
  0.14673E-01
  0.50068E-02
  0.30575E-01
  0.34818E-01
 -0.15017E-01
  0.42744E-01
 -0.40380E-01
  0.14066E-01
 -0.96250E-02
  0.21562E-01
  0.46204E-02
 -0.92685E-03
  0.88756E-02
 -0.60111E-02
  0.15220E-01
  0.72078E-02
 -0.49690E-02
 -0.44746E-01
 -0.63096E-01
  0.23714E-01
  0.31154E-01
 -0.18311E-01
  0.26511E-01
  0.27709E-01
  0.15829E-01
  0.27223E-01
  0.58743E-02
  0.15301E-01
  0.53423E-02
 -0.12191E-01
  0.45919E-02
  0.12671E-01
  0.20100E-01
  0.14577E-01
  0.50895E-02
  0.11878E-01
  0.18999E-01
  0.33527E-01
  0.23221E-01
  0.55455E-03
  0.44289E-01
 -0.28704E-01
 -0.46577E-02
 -0.42962E-01
  0.21902E-01
  0.31613E-01
  0.13828E-02
  0.21542E-02
  0.13519E-01
  0.25603E-01
  0.14430E-01
  0.65089E-02
  0.17058E-01
  0.25720E-01
  0.70681E-02
  0.38214E-02
 -0.89375E-02
  0.20415E-01
  0.34109E-01
  0.15030E-01
 -0.89671E-03
  0.21195E-01
 -0.41708E-01
 -0.38339E-01
 -0.36837E-01
 -0.37267E-01
 -0.35039E-01
 -0.36524E-01
 -0.33661E-01
 -0.35565E-01
 -0.31649E-01
 -0.33464E-01
 -0.36594E-01
 -0.33210E-01
 -0.28492E-01
 -0.34846E-01
 -0.29937E-01
 -0.29022E-01
 -0.23959E-01
 -0.20989E-01
 -0.17158E-01
 -0.20083E-01
 -0.14501E-01
 -0.17809E-01
 -0.14071E-01
 -0.17513E-01
 -0.15858E-01
 -0.19509E-01
 -0.19537E-01
 -0.11185E-01
 -0.23426E-01
 -0.23830E-01
 -0.17310E-01
 -0.20230E-01
 -0.19907E-01
 -0.12375E-01
 -0.13394E-01
 -0.18594E-01
 -0.10539E-01
 -0.11990E-01
 -0.52484E-02
 -0.39038E-02
 -0.11310E-02
  0.95439E-04
  0.14874E-02
  0.21040E-03
  0.42071E-03
  0.35521E-02
  0.34257E-03
 -0.30260E-02
 -0.53663E-02
  0.45688E-03
 -0.62077E-02
  0.13876E-02
 -0.50800E-02
 -0.13449E-01
 -0.11201E-01
 -0.29153E-02
 -0.18898E-01
 -0.14646E-01
 -0.20076E-01
 -0.25650E-01
 -0.14629E-01
 -0.16631E-01
 -0.21399E-01
 -0.23969E-01
 -0.16391E-01
 -0.20448E-01
 -0.10252E-01
 -0.13562E-01
 -0.41408E-02
 -0.11190E-01
 -0.97584E-02
 -0.10384E-01
 -0.45822E-02
  0.97281E-03
  0.47033E-02
  0.96137E-02
  0.10607E-01
  0.15173E-01
 -0.63808E-02
 -0.41994E-02
  0.14069E-01
  0.15711E-01
 -0.25397E-01
  0.13836E-01
  0.13084E-01
  0.12267E-01
  0.10903E-01
  0.11454E-01
  0.88521E-02
  0.85963E-02
  0.62020E-02
  0.74960E-02
  0.55795E-02
 -0.98075E-02
  0.20915E-03
 -0.80943E-03
  0.67304E-02
  0.74935E-02
  0.12042E-01
 -0.21208E-01
  0.74043E-02
  0.62791E-02
 -0.17236E-01
  0.34396E-02
 -0.19288E-02
  0.40060E-03
 -0.13277E-02
  0.23388E-02
  0.82390E-02
  0.77141E-02
  0.56939E-02
  0.78139E-02
  0.11638E-01
  0.12744E-01
  0.77417E-02
  0.59141E-02
  0.85086E-02
  0.98907E-02
  0.10912E-01
  0.11754E-01
  0.12898E-01
  0.12231E-01
  0.14311E-01
  0.13947E-01
  0.15980E-01
  0.16050E-01
  0.17949E-01
  0.17306E-01
  0.19038E-01
  0.20036E-01
  0.20811E-01
  0.22205E-01
  0.22504E-01
  0.24208E-01
  0.24029E-01
  0.25896E-01
  0.25262E-01
  0.27220E-01
  0.26281E-01
  0.28180E-01
  0.27054E-01
  0.28753E-01
  0.25365E-01
  0.27582E-01
  0.29079E-01
  0.27907E-01
  0.29247E-01
  0.30458E-01
  0.30388E-01
  0.31573E-01
  0.31270E-01
  0.32365E-01
  0.31832E-01
  0.32738E-01
  0.32054E-01
  0.32695E-01
  0.31938E-01
  0.32258E-01
  0.31510E-01
  0.31428E-01
  0.30810E-01
  0.30293E-01
  0.31390E-01
  0.30900E-01
  0.29904E-01
  0.28982E-01
  0.22370E-01
  0.28220E-01
  0.26829E-01
  0.28881E-01
  0.29794E-01
  0.27668E-01
  0.27585E-01
  0.26055E-01
  0.25644E-01
  0.24044E-01
  0.23093E-01
  0.21571E-01
  0.19889E-01
  0.27176E-01
  0.25812E-01
  0.18024E-01
  0.33036E-01
  0.28939E-01
  0.29897E-01
  0.27651E-01
  0.29312E-01
  0.33284E-01
  0.18700E-01
  0.16146E-01
  0.24799E-01
  0.29190E-01
  0.30152E-01
  0.26180E-01
  0.24959E-01
  0.13488E-01
  0.15486E-01
  0.12264E-01
  0.21446E-01
  0.26040E-01
  0.27459E-01
  0.30603E-01
  0.30876E-01
  0.31046E-01
 -0.38011E-01
  0.24458E-01
  0.23770E-01
  0.23110E-01
  0.22611E-01
  0.21831E-01
  0.90536E-02
  0.29631E-01
  0.21535E-01
  0.17217E-02
 -0.11671E-01
 -0.15728E-01
  0.21133E-01
  0.12322E-01
  0.77084E-02
  0.84561E-02
  0.32719E-02
  0.49026E-02
 -0.41426E-03
  0.20001E-02
 -0.29873E-02
 -0.65559E-02
 -0.97990E-02
 -0.44138E-02
 -0.94047E-02
 -0.15871E-01
 -0.14036E-01
 -0.81672E-02
 -0.11323E-01
 -0.63324E-02
 -0.78044E-02
 -0.12946E-01
 -0.82848E-02
 -0.13117E-01
 -0.82329E-02
 -0.41603E-02
 -0.36962E-02
 -0.48074E-03
  0.39446E-03
  0.25614E-02
  0.35535E-02
  0.49519E-02
  0.60438E-02
  0.46038E-02
  0.69080E-02
  0.76677E-02
  0.86012E-02
  0.87741E-02
  0.95691E-02
  0.76785E-02
 -0.26485E-02
  0.10918E-01
  0.14827E-01
  0.16205E-01
  0.92574E-02
  0.10062E-01
  0.25409E-01
  0.29475E-02
  0.20706E-01
  0.20944E-01
  0.37540E-02
  0.10127E-01
  0.10565E-01
  0.97872E-02
  0.92663E-02
  0.88005E-02
  0.77458E-02
 -0.18878E-01
 -0.18455E-01
  0.70186E-02
  0.55806E-02
 -0.40681E-02
 -0.45250E-03
 -0.29883E-02
  0.28450E-01
  0.67146E-02
  0.93899E-02
 -0.20203E-01
 -0.58893E-02
  0.81164E-02
  0.12101E-01
  0.13233E-01
  0.15938E-01
  0.16636E-01
  0.18376E-01
  0.18638E-01
  0.16674E-01
  0.18472E-01
  0.16239E-01
  0.19693E-01
  0.18068E-01
  0.15583E-01
  0.13018E-01
  0.12138E-01
  0.89292E-02
  0.78118E-02
  0.11220E-01
  0.63998E-02
  0.29152E-02
  0.10409E-01
  0.48406E-02
  0.57526E-02
  0.26591E-02
  0.30470E-02
 -0.74702E-02
  0.95108E-02
 -0.11518E-02
  0.53110E-03
  0.22267E-01
  0.21377E-01
 -0.10297E-01
 -0.36720E-02
  0.89910E-02
  0.14115E-01
  0.17901E-01
  0.17146E-01
  0.96911E-02
 -0.16986E-01
 -0.21236E-01
  0.13272E-01
  0.12351E-01
  0.17797E-01
  0.11450E-02
  0.29076E-01
  0.30227E-01
  0.22510E-02
  0.40444E-02
 -0.75634E-03
  0.13822E-01
  0.55544E-03
 -0.28318E-02
 -0.24496E-01
 -0.24677E-01
 -0.56797E-02
  0.31350E-01
  0.31227E-01
 -0.37386E-02
 -0.70992E-02
  0.33980E-02
 -0.18869E-02
 -0.46350E-02
 -0.11266E-02
 -0.18567E-01
 -0.30474E-01
 -0.37361E-02
  0.12335E-01
  0.13387E-01
 -0.60453E-02
 -0.91663E-03
  0.19798E-01
  0.19893E-01
  0.37894E-02
  0.13501E-01
  0.78583E-02
  0.19612E-01
 -0.12804E-01
 -0.44287E-02
 -0.10016E-01
 -0.40996E-02
 -0.18549E-01
 -0.28523E-02
  0.91958E-02
  0.86809E-02
 -0.13070E-01
  0.40588E-02
  0.41619E-02
  0.22057E-01
  0.14557E-01
 -0.27775E-01
  0.32827E-02
  0.21346E-01
  0.18497E-03
  0.31019E-01
  0.30892E-01
  0.30762E-01
  0.30340E-01
  0.30475E-01
  0.30261E-01
  0.29598E-01
  0.13029E-01
  0.27737E-01
 -0.97607E-02
 -0.56950E-02
  0.14402E-01
  0.40606E-02
  0.48637E-02
  0.14227E-02
  0.31521E-02
 -0.25687E-01
  0.29824E-01
  0.30935E-01
  0.19744E-01
  0.18538E-01
  0.18764E-01
  0.22919E-01
 -0.30524E-01
 -0.30499E-01
  0.24330E-02
 -0.77415E-02
 -0.10682E-01
 -0.10497E-01
 -0.64815E-02
 -0.95533E-02
 -0.57493E-02
 -0.72739E-02
  0.24950E-02
 -0.34981E-02
 -0.39187E-02
  0.20233E-01
  0.19016E-01
  0.17592E-01
  0.17735E-01
  0.16345E-01
  0.16455E-01
  0.89621E-02
 -0.27954E-01
 -0.39763E-02
  0.31534E-01
  0.31771E-01
  0.16541E-01
 -0.19419E-01
  0.31641E-02
  0.14236E-02
  0.16423E-02
  0.25238E-02
  0.12717E-01
  0.13315E-01
  0.13957E-01
  0.11328E-02
  0.17216E-01
  0.16170E-01
 -0.31755E-01
 -0.15898E-01
  0.12306E-01
  0.29540E-01
  0.28694E-01
  0.28813E-01
  0.27814E-01
 -0.11824E-01
  0.14835E-01
 -0.35250E-01
 -0.36208E-01
 -0.31242E-01
 -0.37199E-01
  0.22653E-01
  0.23547E-01
  0.49271E-02
 -0.96095E-02
 -0.14440E-01
  0.96160E-02
  0.50478E-02
 -0.19359E-02
  0.14108E-01
  0.14310E-01
  0.14887E-01
  0.14888E-01
 -0.36807E-01
  0.31018E-01
  0.27033E-01
  0.26210E-01
  0.68078E-02
  0.13421E-01
  0.23800E-01
  0.65235E-02
  0.51392E-02
  0.14048E-01
 -0.12058E-01
 -0.12294E-01
  0.11669E-01
  0.12758E-01
  0.15173E-01
  0.15200E-01
 -0.27633E-01
 -0.35445E-01
 -0.37818E-01
 -0.14002E-01
 -0.82030E-02
 -0.58216E-02
  0.14923E-01
  0.10895E-01
  0.11624E-01
 -0.10335E-02
  0.40383E-02
  0.19233E-03
  0.31923E-01
  0.32272E-01
  0.14505E-01
 -0.57314E-03
 -0.20814E-03
  0.24818E-03
  0.69840E-02
  0.30652E-01
  0.31732E-01
  0.29417E-01
  0.41856E-02
  0.42331E-02
  0.56125E-02
  0.30764E-01
 -0.91183E-02
 -0.38722E-02
 -0.94539E-02
  0.31302E-01
  0.25363E-01
  0.24511E-01
  0.23416E-01
  0.40033E-02
  0.44210E-02
 -0.10232E-01
  0.92733E-02
  0.36372E-02
 -0.39120E-04
  0.25326E-02
 -0.11379E-02
 -0.35417E-01
 -0.39414E-01
 -0.39362E-01
  0.27642E-01
  0.26724E-01
  0.27014E-01
  0.25930E-01
  0.59410E-02
  0.20626E-01
  0.20775E-01
  0.61476E-02
  0.22570E-01
  0.21346E-01
  0.23876E-01
 -0.12645E-01
 -0.12524E-01
  0.15307E-01
  0.15205E-01
  0.14388E-01
  0.14773E-01
  0.19366E-01
  0.15005E-01
  0.17302E-01
  0.14683E-01
  0.16955E-01
 -0.19503E-01
  0.27090E-01
  0.14519E-01
  0.12058E-01
 -0.39195E-01
 -0.39499E-01
 -0.24329E-02
  0.24057E-03
  0.32350E-01
  0.95525E-03
  0.16973E-01
 -0.29301E-01
 -0.33476E-01
 -0.44497E-01
 -0.36249E-01
 -0.26002E-01
 -0.25733E-01
 -0.22358E-02
  0.23137E-03
  0.19120E-01
  0.19926E-01
  0.20199E-01
  0.19879E-01
  0.20262E-01
  0.19343E-01
  0.18732E-01
  0.13402E-01
  0.14165E-01
  0.14979E-01
  0.14740E-01
  0.25614E-01
  0.24852E-01
  0.11491E-01
  0.12884E-01
  0.11798E-01
 -0.10010E-01
  0.16937E-01
  0.21322E-02
 -0.56486E-02
  0.20042E-01
  0.36375E-02
  0.30519E-02
  0.50984E-02
  0.13916E-01
 -0.25040E-01
  0.23568E-02
  0.35502E-02
 -0.39297E-01
 -0.35740E-01
 -0.23118E-01
 -0.15627E-01
 -0.11876E-01
 -0.20184E-01
 -0.65910E-02
 -0.10592E-01
 -0.30989E-03
 -0.22866E-02
  0.63746E-02
  0.60220E-02
  0.13219E-01
  0.12152E-01
  0.17605E-01
  0.19618E-01
  0.22304E-01
  0.24822E-01
  0.26074E-01
  0.28792E-01
  0.28097E-01
  0.31963E-01
  0.31365E-01
  0.34076E-01
  0.32882E-01
  0.34931E-01
  0.36521E-01
  0.36725E-01
  0.38639E-01
  0.37970E-01
  0.39967E-01
  0.38587E-01
  0.36876E-01
  0.36984E-01
  0.38590E-01
  0.36450E-01
  0.37261E-01
  0.35391E-01
  0.35672E-01
  0.37496E-01
  0.35328E-01
  0.33679E-01
  0.32748E-01
  0.37104E-01
  0.35607E-01
  0.31491E-01
  0.30042E-01
  0.30882E-01
  0.27677E-01
  0.26931E-01
  0.24419E-01
  0.38423E-01
  0.30780E-01
  0.33504E-01
  0.22059E-01
  0.20200E-01
  0.22433E-01
  0.18907E-01
  0.15578E-01
  0.15291E-01
  0.11175E-01
  0.11987E-01
  0.76372E-02
  0.93081E-02
  0.54224E-02
  0.74782E-02
  0.16048E-01
  0.31874E-01
  0.32337E-01
  0.24747E-01
  0.34731E-01
  0.33533E-01
  0.39336E-01
  0.35409E-01
  0.26703E-01
  0.10305E-01
  0.21393E-01
  0.20901E-01
  0.87033E-03
  0.12826E-01
 -0.38688E-01
 -0.93811E-02
 -0.15659E-01
  0.80295E-02
 -0.39246E-01
  0.13028E-01
  0.12419E-01
  0.20169E-01
  0.20753E-01
  0.49649E-02
  0.27844E-03
  0.77757E-03
 -0.30846E-02
  0.12728E-01
 -0.37462E-02
  0.59001E-02
  0.38547E-01
  0.78857E-02
  0.18226E-01
  0.28725E-02
 -0.19600E-02
  0.17716E-01
  0.38490E-03
 -0.46435E-02
 -0.41837E-02
 -0.39642E-01
  0.21079E-02
  0.35291E-01
  0.40112E-01
 -0.71415E-02
 -0.42310E-01
 -0.57244E-02
  0.23938E-01
  0.19119E-01
  0.14149E-01
  0.32771E-01
  0.17720E-01
  0.17167E-01
  0.11363E-01
 -0.11379E-01
 -0.15429E-01
 -0.16022E-01
  0.22120E-01
  0.26554E-01
 -0.42909E-01
  0.15614E-01
  0.31140E-01
 -0.19219E-01
 -0.16731E-01
 -0.62413E-02
  0.61409E-02
  0.25252E-02
  0.26215E-03
  0.29211E-01
  0.23189E-01
  0.22487E-01
  0.19754E-01
  0.19561E-01
  0.23520E-01
  0.22916E-01
  0.34454E-01
  0.62497E-02
  0.53765E-02
  0.40711E-02
  0.24108E-01
  0.26602E-01
 -0.42274E-02
  0.13148E-01
  0.12897E-01
 -0.17542E-01
 -0.37658E-02
  0.14918E-01
  0.15104E-01
 -0.16837E-01
 -0.13521E-01
 -0.40028E-01
 -0.38983E-01
  0.15763E-01
  0.14107E-01
  0.14318E-01
  0.33207E-01
  0.31905E-01
  0.32428E-01
  0.17327E-01
  0.80959E-02
  0.19684E-02
 -0.22993E-01
 -0.26993E-01
  0.11377E-01
  0.38080E-01
  0.30355E-01
  0.28918E-01
  0.15091E-01
 -0.47635E-01
  0.33073E-01
  0.15101E-01
  0.15649E-01
  0.10684E-01
  0.14961E-01
  0.17682E-01
  0.13153E-01
  0.12712E-01
  0.11207E-01
  0.17486E-01
  0.15277E-01
  0.15042E-01
  0.10402E-01
  0.94798E-02
  0.18950E-01
 -0.41411E-01
 -0.20828E-01
 -0.22083E-01
 -0.17394E-01
 -0.22117E-01
  0.99827E-02
 -0.12306E-01
  0.25071E-01
 -0.18013E-01
  0.95822E-02
  0.79309E-02
  0.10053E-01
  0.35445E-01
  0.55804E-02
  0.87987E-02
  0.22949E-01
 -0.40212E-02
 -0.68128E-02
  0.65532E-02
 -0.92389E-02
 -0.41608E-01
  0.29354E-01
  0.30320E-01
  0.40876E-01
  0.41952E-01
  0.40443E-01
  0.41859E-01
  0.40254E-01
 -0.31516E-02
  0.22997E-01
  0.39001E-02
  0.44209E-01
  0.13791E-01
  0.13453E-01
  0.23949E-01
  0.25823E-01
  0.12507E-01
  0.32403E-02
  0.10680E-01
 -0.10480E-03
 -0.71092E-02
  0.15411E-01
  0.14963E-01
 -0.91707E-02
 -0.12741E-01
 -0.12495E-01
 -0.11509E-01
  0.14684E-01
  0.17909E-01
  0.16392E-01
  0.15671E-01
  0.29764E-01
  0.42984E-01
  0.46838E-02
  0.38943E-02
  0.37175E-02
 -0.37448E-02
  0.38194E-02
  0.41674E-02
  0.16152E-01
 -0.49467E-02
 -0.29089E-01
  0.35302E-02
 -0.12624E-02
 -0.60944E-02
 -0.54032E-01
 -0.36435E-01
 -0.38940E-01
  0.31091E-01
  0.32738E-01
  0.32379E-01
  0.56439E-03
 -0.35824E-01
 -0.30250E-01
 -0.40766E-02
 -0.61852E-02
  0.24027E-01
  0.24630E-01
  0.18608E-01
  0.34274E-01
 -0.53338E-02
 -0.12977E-01
 -0.15413E-01
  0.21324E-01
  0.21846E-01
  0.22908E-01
  0.20691E-01
  0.22507E-01
  0.22295E-01
  0.24780E-01
  0.25372E-01
  0.30982E-01
  0.30896E-01
  0.30892E-01
  0.30464E-01
  0.14217E-01
  0.30282E-01
  0.29567E-01
  0.30932E-01
  0.31085E-01
  0.28630E-01
  0.30491E-01
  0.29759E-01
 -0.12745E-01
  0.70069E-02
  0.71098E-02
  0.65634E-02
  0.74762E-02
  0.76977E-02
  0.69312E-02
  0.84579E-02
  0.80331E-02
  0.76065E-02
  0.59421E-02
  0.62174E-02
  0.31542E-02
  0.26602E-01
  0.27355E-01
  0.28634E-01
  0.28858E-01
  0.29820E-01
  0.29746E-01
  0.30148E-01
 -0.53681E-02
 -0.87499E-02
  0.14136E-01
  0.28038E-01
  0.30045E-01
  0.30389E-01
 -0.17743E-01
 -0.10441E-01
 -0.20409E-02
 -0.72720E-02
  0.24346E-01
  0.28631E-01
  0.28725E-01
  0.23630E-01
  0.14192E-01
  0.88322E-02
  0.93178E-02
  0.67349E-02
  0.65711E-02
  0.40478E-02
  0.30433E-02
  0.80019E-03
  0.23251E-02
  0.63014E-02
  0.65491E-02
  0.28013E-01
  0.45295E-02
  0.34677E-02
  0.35895E-02
  0.18570E-02
  0.24811E-02
  0.41097E-02
  0.34193E-02
  0.11905E-02
 -0.12422E-01
  0.22480E-01
  0.24623E-01
  0.25858E-01
  0.11673E-01
  0.62244E-02
  0.55874E-02
  0.64182E-02
  0.56997E-02
  0.66996E-02
  0.57573E-02
  0.43510E-02
  0.70285E-02
  0.69937E-02
  0.17010E-01
  0.16899E-01
  0.17875E-01
  0.17149E-01
  0.17985E-01
  0.18067E-01
  0.18791E-01
 -0.73034E-02
  0.23314E-01
 -0.47640E-01
  0.11286E-02
  0.39468E-02
 -0.81584E-02
  0.15538E-01
  0.42384E-02
  0.40315E-02
  0.43424E-02
  0.53968E-02
  0.55832E-02
  0.31043E-01
 -0.33714E-01
  0.41473E-02
  0.35176E-01
  0.13871E-01
 -0.43036E-03
  0.73567E-02
  0.18921E-01
  0.47142E-02
  0.13643E-01
 -0.70039E-03
  0.19165E-01
  0.39204E-02
  0.10936E-01
  0.68863E-02
  0.10136E-01
 -0.18664E-01
 -0.65051E-02
 -0.57663E-02
 -0.70196E-02
 -0.32666E-01
  0.77717E-02
  0.15595E-02
  0.19340E-01
  0.93344E-02
  0.18911E-01
  0.22035E-01
  0.18281E-01
  0.20894E-01
  0.24468E-01
  0.22628E-01
  0.20057E-01
  0.21262E-01
  0.23349E-01
  0.19789E-01
  0.20326E-01
  0.14653E-01
  0.13751E-01
 -0.28229E-01
  0.91613E-02
  0.98575E-02
  0.32826E-01
  0.32256E-01
  0.33324E-01
  0.32697E-01
  0.33604E-01
  0.60547E-02
  0.23919E-01
  0.57751E-02
  0.44865E-02
  0.14727E-01
 -0.10119E-02
  0.21505E-01
  0.67512E-02
  0.26742E-01
 -0.11101E-01
 -0.50878E-02
 -0.58065E-02
  0.44576E-02
  0.36971E-02
  0.59212E-02
  0.24878E-02
  0.26328E-02
  0.11324E-02
  0.21424E-02
  0.77105E-03
 -0.11028E-03
 -0.27673E-03
  0.11265E-02
  0.22794E-02
  0.27095E-02
  0.40605E-02
  0.40914E-02
  0.26369E-01
  0.19747E-01
  0.15209E-01
  0.91341E-02
  0.88208E-02
 -0.10608E-01
  0.45042E-03
 -0.78688E-02
 -0.23959E-01
 -0.17521E-01
  0.40405E-02
  0.21805E-02
  0.63160E-02
  0.38400E-02
 -0.38494E-02
  0.32247E-01
 -0.73473E-02
 -0.12098E-01
  0.66206E-03
  0.88008E-02
  0.21096E-01
  0.35031E-01
  0.68324E-02
  0.14700E-01
 -0.37928E-02
  0.15059E-01
  0.15525E-02
 -0.21117E-01
 -0.74268E-02
  0.44969E-02
  0.38872E-02
  0.19020E-01
 -0.43984E-02
  0.15014E-01
 -0.24892E-01
 -0.39394E-01
 -0.39892E-01
  0.51949E-02
 -0.15232E-01
  0.34363E-01
  0.91458E-02
  0.14316E-01
 -0.72866E-03
  0.26528E-01
  0.33623E-01
  0.23276E-01
 -0.39069E-01
  0.42037E-02
  0.67483E-02
  0.13787E-01
 -0.12922E-01
  0.12346E-03
  0.17276E-01
  0.12704E-01
 -0.37885E-01
  0.28759E-02
  0.19730E-01
  0.19680E-02
  0.40934E-01
  0.49442E-02
 -0.17979E-01
  0.22393E-01
 -0.58647E-02
  0.16236E-01
  0.79373E-02
  0.17002E-01
  0.28193E-02
  0.15652E-01
 -0.10906E-01
 -0.39473E-02
  0.15281E-01
  0.27410E-01
 -0.36864E-02
 -0.38889E-03
  0.30079E-01
 -0.24908E-01
 -0.27022E-01
 -0.17012E-03
  0.21957E-01
 -0.54556E-01
 -0.61552E-01
  0.30997E-02
  0.19799E-01
 -0.14246E-01
 -0.22349E-01
 -0.41239E-01
  0.21235E-01
  0.70540E-02
  0.31096E-01
  0.19549E-01
 -0.47279E-03
 -0.19524E-01
  0.19509E-01
  0.12013E-01
  0.10561E-02
  0.17852E-01
  0.30572E-01
  0.14746E-01
  0.19666E-01
  0.30494E-01
  0.18594E-01
  0.43326E-02
  0.20583E-01
 -0.39936E-01
 -0.21273E-01
  0.15407E-01
 -0.12839E-01
  0.28565E-01
  0.12222E-01
  0.54622E-02
  0.20319E-01
  0.20624E-01
  0.50889E-02
  0.24525E-01
  0.24372E-01
  0.44293E-02
  0.20809E-01
  0.49659E-02
  0.18003E-01
 -0.88779E-02
  0.93631E-02
  0.27580E-01
  0.13324E-01
 -0.42398E-01
  0.19623E-01
  0.30178E-01
  0.20326E-02
 -0.35126E-01
  0.33787E-01
  0.15661E-01
  0.12015E-01
  0.10215E-01
  0.31471E-01
 -0.11185E-01
  0.20861E-01
  0.26346E-01
 -0.19637E-03
  0.19879E-01
  0.26273E-01
  0.17310E-01
  0.36255E-01
  0.33872E-01
  0.22857E-01
 -0.91917E-02
  0.21129E-01
  0.13949E-01
 -0.41419E-02
 -0.23995E-01