# vtk DataFile Version 2.0
Unstructured Grid UFVM-ECOMOD
ASCII
DATASET UNSTRUCTURED_GRID
 POINTS         2086  float
  0.00000E+00  0.00000E+00  0.00000E+00
  0.40000E+01  0.00000E+00  0.00000E+00
  0.40000E+01  0.20000E+01  0.00000E+00
  0.00000E+00  0.20000E+01  0.00000E+00
  0.11787E+01  0.12812E+01  0.00000E+00
  0.11720E+01  0.12579E+01  0.00000E+00
  0.11523E+01  0.12361E+01  0.00000E+00
  0.11208E+01  0.12171E+01  0.00000E+00
  0.10795E+01  0.12021E+01  0.00000E+00
  0.10311E+01  0.11921E+01  0.00000E+00
  0.97842E+00  0.11877E+01  0.00000E+00
  0.92495E+00  0.11892E+01  0.00000E+00
  0.87399E+00  0.11964E+01  0.00000E+00
  0.82875E+00  0.12090E+01  0.00000E+00
  0.79207E+00  0.12262E+01  0.00000E+00
  0.76626E+00  0.12467E+01  0.00000E+00
  0.75294E+00  0.12695E+01  0.00000E+00
  0.75294E+00  0.12930E+01  0.00000E+00
  0.76626E+00  0.13158E+01  0.00000E+00
  0.79207E+00  0.13363E+01  0.00000E+00
  0.82875E+00  0.13535E+01  0.00000E+00
  0.87399E+00  0.13661E+01  0.00000E+00
  0.92495E+00  0.13733E+01  0.00000E+00
  0.97842E+00  0.13748E+01  0.00000E+00
  0.10311E+01  0.13704E+01  0.00000E+00
  0.10795E+01  0.13604E+01  0.00000E+00
  0.11208E+01  0.13454E+01  0.00000E+00
  0.11523E+01  0.13264E+01  0.00000E+00
  0.11720E+01  0.13046E+01  0.00000E+00
  0.11275E+01  0.10550E+01  0.00000E+00
  0.11246E+01  0.10357E+01  0.00000E+00
  0.11162E+01  0.10177E+01  0.00000E+00
  0.11028E+01  0.10019E+01  0.00000E+00
  0.10851E+01  0.98956E+00  0.00000E+00
  0.10644E+01  0.98129E+00  0.00000E+00
  0.10420E+01  0.97765E+00  0.00000E+00
  0.10192E+01  0.97887E+00  0.00000E+00
  0.99740E+00  0.98488E+00  0.00000E+00
  0.97809E+00  0.99529E+00  0.00000E+00
  0.96243E+00  0.10094E+01  0.00000E+00
  0.95141E+00  0.10265E+01  0.00000E+00
  0.94572E+00  0.10453E+01  0.00000E+00
  0.94572E+00  0.10647E+01  0.00000E+00
  0.95141E+00  0.10835E+01  0.00000E+00
  0.96243E+00  0.11005E+01  0.00000E+00
  0.97809E+00  0.11147E+01  0.00000E+00
  0.99740E+00  0.11251E+01  0.00000E+00
  0.10192E+01  0.11311E+01  0.00000E+00
  0.10420E+01  0.11323E+01  0.00000E+00
  0.10644E+01  0.11287E+01  0.00000E+00
  0.10851E+01  0.11204E+01  0.00000E+00
  0.11028E+01  0.11080E+01  0.00000E+00
  0.11162E+01  0.10923E+01  0.00000E+00
  0.11246E+01  0.10743E+01  0.00000E+00
  0.62875E+00  0.11344E+01  0.00000E+00
  0.62759E+00  0.10960E+01  0.00000E+00
  0.62419E+00  0.10600E+01  0.00000E+00
  0.61876E+00  0.10287E+01  0.00000E+00
  0.61163E+00  0.10040E+01  0.00000E+00
  0.60327E+00  0.98756E+00  0.00000E+00
  0.59419E+00  0.98030E+00  0.00000E+00
  0.58497E+00  0.98273E+00  0.00000E+00
  0.57617E+00  0.99469E+00  0.00000E+00
  0.56837E+00  0.10154E+01  0.00000E+00
  0.56204E+00  0.10436E+01  0.00000E+00
  0.55759E+00  0.10776E+01  0.00000E+00
  0.55529E+00  0.11150E+01  0.00000E+00
  0.55529E+00  0.11537E+01  0.00000E+00
  0.55759E+00  0.11912E+01  0.00000E+00
  0.56204E+00  0.12251E+01  0.00000E+00
  0.56837E+00  0.12533E+01  0.00000E+00
  0.57617E+00  0.12741E+01  0.00000E+00
  0.58497E+00  0.12860E+01  0.00000E+00
  0.59419E+00  0.12885E+01  0.00000E+00
  0.60327E+00  0.12812E+01  0.00000E+00
  0.61163E+00  0.12647E+01  0.00000E+00
  0.61876E+00  0.12401E+01  0.00000E+00
  0.62419E+00  0.12087E+01  0.00000E+00
  0.62759E+00  0.11728E+01  0.00000E+00
  0.10000E+00  0.00000E+00  0.00000E+00
  0.20000E+00  0.00000E+00  0.00000E+00
  0.30000E+00  0.00000E+00  0.00000E+00
  0.40000E+00  0.00000E+00  0.00000E+00
  0.50000E+00  0.00000E+00  0.00000E+00
  0.60000E+00  0.00000E+00  0.00000E+00
  0.70000E+00  0.00000E+00  0.00000E+00
  0.80000E+00  0.00000E+00  0.00000E+00
  0.90000E+00  0.00000E+00  0.00000E+00
  0.10000E+01  0.00000E+00  0.00000E+00
  0.11000E+01  0.00000E+00  0.00000E+00
  0.12000E+01  0.00000E+00  0.00000E+00
  0.13000E+01  0.00000E+00  0.00000E+00
  0.14000E+01  0.00000E+00  0.00000E+00
  0.15000E+01  0.00000E+00  0.00000E+00
  0.16000E+01  0.00000E+00  0.00000E+00
  0.17000E+01  0.00000E+00  0.00000E+00
  0.18000E+01  0.00000E+00  0.00000E+00
  0.19000E+01  0.00000E+00  0.00000E+00
  0.20000E+01  0.00000E+00  0.00000E+00
  0.21000E+01  0.00000E+00  0.00000E+00
  0.22000E+01  0.00000E+00  0.00000E+00
  0.23000E+01  0.00000E+00  0.00000E+00
  0.24000E+01  0.00000E+00  0.00000E+00
  0.25000E+01  0.00000E+00  0.00000E+00
  0.26000E+01  0.00000E+00  0.00000E+00
  0.27000E+01  0.00000E+00  0.00000E+00
  0.28000E+01  0.00000E+00  0.00000E+00
  0.29000E+01  0.00000E+00  0.00000E+00
  0.30000E+01  0.00000E+00  0.00000E+00
  0.31000E+01  0.00000E+00  0.00000E+00
  0.32000E+01  0.00000E+00  0.00000E+00
  0.33000E+01  0.00000E+00  0.00000E+00
  0.34000E+01  0.00000E+00  0.00000E+00
  0.35000E+01  0.00000E+00  0.00000E+00
  0.36000E+01  0.00000E+00  0.00000E+00
  0.37000E+01  0.00000E+00  0.00000E+00
  0.38000E+01  0.00000E+00  0.00000E+00
  0.39000E+01  0.00000E+00  0.00000E+00
  0.40000E+01  0.10000E+00  0.00000E+00
  0.40000E+01  0.20000E+00  0.00000E+00
  0.40000E+01  0.30000E+00  0.00000E+00
  0.40000E+01  0.40000E+00  0.00000E+00
  0.40000E+01  0.50000E+00  0.00000E+00
  0.40000E+01  0.60000E+00  0.00000E+00
  0.40000E+01  0.70000E+00  0.00000E+00
  0.40000E+01  0.80000E+00  0.00000E+00
  0.40000E+01  0.90000E+00  0.00000E+00
  0.40000E+01  0.10000E+01  0.00000E+00
  0.40000E+01  0.11000E+01  0.00000E+00
  0.40000E+01  0.12000E+01  0.00000E+00
  0.40000E+01  0.13000E+01  0.00000E+00
  0.40000E+01  0.14000E+01  0.00000E+00
  0.40000E+01  0.15000E+01  0.00000E+00
  0.40000E+01  0.16000E+01  0.00000E+00
  0.40000E+01  0.17000E+01  0.00000E+00
  0.40000E+01  0.18000E+01  0.00000E+00
  0.40000E+01  0.19000E+01  0.00000E+00
  0.39000E+01  0.20000E+01  0.00000E+00
  0.38000E+01  0.20000E+01  0.00000E+00
  0.37000E+01  0.20000E+01  0.00000E+00
  0.36000E+01  0.20000E+01  0.00000E+00
  0.35000E+01  0.20000E+01  0.00000E+00
  0.34000E+01  0.20000E+01  0.00000E+00
  0.33000E+01  0.20000E+01  0.00000E+00
  0.32000E+01  0.20000E+01  0.00000E+00
  0.31000E+01  0.20000E+01  0.00000E+00
  0.30000E+01  0.20000E+01  0.00000E+00
  0.29000E+01  0.20000E+01  0.00000E+00
  0.28000E+01  0.20000E+01  0.00000E+00
  0.27000E+01  0.20000E+01  0.00000E+00
  0.26000E+01  0.20000E+01  0.00000E+00
  0.25000E+01  0.20000E+01  0.00000E+00
  0.24000E+01  0.20000E+01  0.00000E+00
  0.23000E+01  0.20000E+01  0.00000E+00
  0.22000E+01  0.20000E+01  0.00000E+00
  0.21000E+01  0.20000E+01  0.00000E+00
  0.20000E+01  0.20000E+01  0.00000E+00
  0.19000E+01  0.20000E+01  0.00000E+00
  0.18000E+01  0.20000E+01  0.00000E+00
  0.17000E+01  0.20000E+01  0.00000E+00
  0.16000E+01  0.20000E+01  0.00000E+00
  0.15000E+01  0.20000E+01  0.00000E+00
  0.14000E+01  0.20000E+01  0.00000E+00
  0.13000E+01  0.20000E+01  0.00000E+00
  0.12000E+01  0.20000E+01  0.00000E+00
  0.11000E+01  0.20000E+01  0.00000E+00
  0.10000E+01  0.20000E+01  0.00000E+00
  0.90000E+00  0.20000E+01  0.00000E+00
  0.80000E+00  0.20000E+01  0.00000E+00
  0.70000E+00  0.20000E+01  0.00000E+00
  0.60000E+00  0.20000E+01  0.00000E+00
  0.50000E+00  0.20000E+01  0.00000E+00
  0.40000E+00  0.20000E+01  0.00000E+00
  0.30000E+00  0.20000E+01  0.00000E+00
  0.20000E+00  0.20000E+01  0.00000E+00
  0.10000E+00  0.20000E+01  0.00000E+00
  0.00000E+00  0.19000E+01  0.00000E+00
  0.00000E+00  0.18000E+01  0.00000E+00
  0.00000E+00  0.17000E+01  0.00000E+00
  0.00000E+00  0.16000E+01  0.00000E+00
  0.00000E+00  0.15000E+01  0.00000E+00
  0.00000E+00  0.14000E+01  0.00000E+00
  0.00000E+00  0.13000E+01  0.00000E+00
  0.00000E+00  0.12000E+01  0.00000E+00
  0.00000E+00  0.11000E+01  0.00000E+00
  0.00000E+00  0.10000E+01  0.00000E+00
  0.00000E+00  0.90000E+00  0.00000E+00
  0.00000E+00  0.80000E+00  0.00000E+00
  0.00000E+00  0.70000E+00  0.00000E+00
  0.00000E+00  0.60000E+00  0.00000E+00
  0.00000E+00  0.50000E+00  0.00000E+00
  0.00000E+00  0.40000E+00  0.00000E+00
  0.00000E+00  0.30000E+00  0.00000E+00
  0.00000E+00  0.20000E+00  0.00000E+00
  0.00000E+00  0.10000E+00  0.00000E+00
  0.11961E+01  0.12633E+01  0.00000E+00
  0.21488E+01  0.93320E-01  0.00000E+00
  0.61866E+00  0.98978E+00  0.00000E+00
  0.20489E+01  0.19184E+01  0.00000E+00
  0.25498E+01  0.19136E+01  0.00000E+00
  0.29499E+01  0.86560E-01  0.00000E+00
  0.93236E+00  0.10310E+01  0.00000E+00
  0.17510E+01  0.72450E-01  0.00000E+00
  0.29467E+01  0.19168E+01  0.00000E+00
  0.25487E+01  0.85720E-01  0.00000E+00
  0.76221E+00  0.13471E+01  0.00000E+00
  0.39134E+01  0.10499E+01  0.00000E+00
  0.11777E+01  0.13352E+01  0.00000E+00
  0.75033E+00  0.75620E-01  0.00000E+00
  0.13476E+01  0.80200E-01  0.00000E+00
  0.10427E+01  0.86980E-01  0.00000E+00
  0.16534E+01  0.19146E+01  0.00000E+00
  0.33491E+01  0.86080E-01  0.00000E+00
  0.76560E-01  0.54986E+00  0.00000E+00
  0.33536E+01  0.19187E+01  0.00000E+00
  0.64251E+00  0.10384E+01  0.00000E+00
  0.54363E+00  0.10247E+01  0.00000E+00
  0.39158E+01  0.64933E+00  0.00000E+00
  0.53844E+00  0.12429E+01  0.00000E+00
  0.11152E+01  0.13830E+01  0.00000E+00
  0.39057E+01  0.13553E+01  0.00000E+00
  0.45348E+00  0.19192E+01  0.00000E+00
  0.84329E+00  0.13986E+01  0.00000E+00
  0.10069E+01  0.14153E+01  0.00000E+00
  0.79140E-01  0.15509E+01  0.00000E+00
  0.51664E+00  0.11388E+01  0.00000E+00
  0.13387E+01  0.19132E+01  0.00000E+00
  0.61809E+00  0.12788E+01  0.00000E+00
  0.44149E+00  0.86000E-01  0.00000E+00
  0.82010E-01  0.85167E+00  0.00000E+00
  0.79235E+00  0.11912E+01  0.00000E+00
  0.73934E+00  0.19100E+01  0.00000E+00
  0.97720E-01  0.12541E+01  0.00000E+00
  0.36625E+01  0.99060E-01  0.00000E+00
  0.36500E+01  0.19142E+01  0.00000E+00
  0.10534E+01  0.19002E+01  0.00000E+00
  0.93232E+00  0.10799E+01  0.00000E+00
  0.73234E+00  0.12821E+01  0.00000E+00
  0.11221E+01  0.11125E+01  0.00000E+00
  0.38972E+01  0.16498E+01  0.00000E+00
  0.39125E+01  0.34987E+00  0.00000E+00
  0.91360E-01  0.10554E+01  0.00000E+00
  0.66195E+00  0.11154E+01  0.00000E+00
  0.82340E-01  0.34870E+00  0.00000E+00
  0.18502E+01  0.19156E+01  0.00000E+00
  0.15459E+01  0.76350E-01  0.00000E+00
  0.19483E+01  0.85500E-01  0.00000E+00
[...]
 POINT_DATA         2086
  
 SCALARS WL      float 1
 LOOKUP_TABLE default
  0.11174E-01
  0.11748E-02
  0.55268E-02
  0.22335E-01
 -0.33488E-01
 -0.35289E-01
 -0.24670E-01
 -0.14124E-01
 -0.13323E-01
 -0.13929E-01
 -0.13318E-01
 -0.13449E-01
 -0.13506E-01
 -0.12766E-01
 -0.12275E-01
 -0.12020E-01
 -0.13272E-01
 -0.11540E-01
 -0.46031E-02
 -0.18804E-02
 -0.68900E-02
 -0.20854E-01
 -0.35027E-01
 -0.48987E-01
 -0.53194E-01
 -0.47640E-01
 -0.36787E-01
 -0.30732E-01
 -0.30374E-01
 -0.18346E-01
 -0.15344E-01
 -0.14384E-01
 -0.15103E-01
 -0.16266E-01
 -0.17011E-01
 -0.18200E-01
 -0.20119E-01
 -0.21628E-01
 -0.21220E-01
 -0.19313E-01
 -0.17816E-01
 -0.16543E-01
 -0.15539E-01
 -0.14788E-01
 -0.14208E-01
 -0.13794E-01
 -0.13582E-01
 -0.13825E-01
 -0.14575E-01
 -0.15729E-01
 -0.16761E-01
 -0.17836E-01
 -0.20893E-01
 -0.20922E-01
 -0.11209E-01
 -0.11899E-01
 -0.12087E-01
 -0.11781E-01
 -0.11534E-01
 -0.11603E-01
 -0.12187E-01
 -0.56126E-02
  0.10639E-01
  0.25999E-01
  0.35667E-01
  0.40897E-01
  0.43341E-01
  0.43816E-01
  0.42429E-01
  0.38188E-01
  0.28822E-01
  0.12112E-01
 -0.49319E-02
 -0.11343E-01
 -0.11020E-01
 -0.11520E-01
 -0.11241E-01
 -0.10171E-01
 -0.10400E-01
  0.11007E-01
  0.10608E-01
  0.99552E-02
  0.91353E-02
  0.82552E-02
  0.72795E-02
  0.65289E-02
  0.59649E-02
  0.57679E-02
  0.57317E-02
  0.57148E-02
  0.56297E-02
  0.54810E-02
  0.52329E-02
  0.51194E-02
  0.50175E-02
  0.49955E-02
  0.49478E-02
  0.49041E-02
  0.48195E-02
  0.47800E-02
  0.47712E-02
  0.48313E-02
  0.50936E-02
  0.54804E-02
  0.59985E-02
  0.65783E-02
  0.71197E-02
  0.75695E-02
  0.78768E-02
  0.79237E-02
  0.79115E-02
  0.78511E-02
  0.75848E-02
  0.71807E-02
  0.65076E-02
  0.55133E-02
  0.42311E-02
  0.24500E-02
  0.00000E+00
  0.00000E+00
  0.00000E+00
  0.00000E+00
  0.00000E+00
  0.00000E+00
  0.00000E+00
  0.00000E+00
  0.00000E+00
  0.00000E+00
  0.00000E+00
  0.00000E+00
  0.00000E+00
  0.00000E+00
  0.00000E+00
  0.00000E+00
  0.00000E+00
  0.00000E+00
  0.00000E+00
  0.75786E-02
  0.10064E-01
  0.11036E-01
  0.11122E-01
  0.10850E-01
  0.10087E-01
  0.85800E-02
  0.70548E-02
  0.63678E-02
  0.59283E-02
  0.58180E-02
  0.58355E-02
  0.58536E-02
  0.59685E-02
  0.63009E-02
  0.67951E-02
  0.70863E-02
  0.67493E-02
  0.66480E-02
  0.62283E-02
  0.54538E-02
  0.45062E-02
  0.33282E-02
  0.18104E-02
 -0.23085E-03
 -0.31690E-02
 -0.63208E-02
 -0.85640E-02
 -0.88616E-02
 -0.65477E-02
 -0.23176E-02
  0.24429E-02
  0.70608E-02
  0.11429E-01
  0.15136E-01
  0.18116E-01
  0.20399E-01
  0.21832E-01
  0.22365E-01
  0.22423E-01
  0.22754E-01
  0.23295E-01
  0.24019E-01
  0.24886E-01
  0.25740E-01
  0.26385E-01
  0.26600E-01
  0.26168E-01
  0.24988E-01
  0.23239E-01
  0.21164E-01
  0.18962E-01
  0.17010E-01
  0.15244E-01
  0.13745E-01
  0.12645E-01
  0.11846E-01
  0.11377E-01
 -0.33554E-01
  0.47950E-02
 -0.11467E-01
  0.65342E-02
  0.59778E-02
  0.76738E-02
 -0.17001E-01
  0.49275E-02
  0.56204E-02
  0.57481E-02
 -0.32964E-02
 -0.14929E-02
 -0.29907E-01
  0.62339E-02
  0.51342E-02
  0.55708E-02
  0.25786E-02
  0.76581E-02
  0.16113E-01
  0.91429E-02
 -0.11933E-01
  0.32196E-01
  0.57665E-03
  0.35332E-01
 -0.41147E-01
 -0.24208E-02
  0.16662E-01
 -0.11876E-01
 -0.49451E-01
  0.24668E-01
  0.43058E-01
 -0.53180E-02
 -0.11038E-01
  0.88787E-02
  0.22486E-01
 -0.12520E-01
  0.50625E-02
  0.27202E-01
  0.58093E-02
  0.10744E-01
 -0.86627E-02
 -0.14999E-01
 -0.13759E-01
 -0.18932E-01
  0.31299E-02
  0.13986E-02
  0.26284E-01
 -0.11818E-01
  0.13074E-01
  0.49534E-02
  0.49313E-02
  0.48768E-02
  0.69600E-02
  0.50202E-02
  0.65217E-02
  0.56167E-02
  0.68295E-02
  0.78998E-02
 -0.33283E-03
  0.23159E-01
 -0.10662E-01
 -0.18844E-01
  0.10399E-01
 -0.11898E-01
 -0.30000E-01
 -0.31533E-01
 -0.28405E-01
 -0.31849E-01
 -0.27206E-01
 -0.32834E-01
 -0.28744E-01
 -0.34821E-01
 -0.38876E-01
 -0.41149E-01
 -0.43959E-01
 -0.46191E-01
 -0.47910E-01
 -0.49450E-01
 -0.49715E-01
 -0.49713E-01
 -0.47630E-01
 -0.45347E-01
 -0.40443E-01
 -0.36379E-01
 -0.29569E-01
 -0.25395E-01
 -0.18617E-01
 -0.15404E-01
 -0.19765E-01
 -0.11862E-01
 -0.47749E-01
 -0.31290E-01
 -0.94243E-02
 -0.14471E-01
 -0.90892E-02
 -0.10629E-01
 -0.76347E-02
 -0.87245E-02
 -0.75454E-02
 -0.54448E-02
 -0.68416E-02
 -0.86233E-02
 -0.92791E-02
 -0.43151E-02
 -0.10582E-01
 -0.24296E-02
 -0.20283E-02
  0.48589E-02
  0.56287E-02
  0.89366E-02
  0.83610E-02
 -0.10594E-01
 -0.11965E-01
 -0.16729E-01
 -0.12572E-01
 -0.13216E-01
  0.85656E-02
  0.66671E-02
 -0.13446E-01
 -0.11962E-01
 -0.10519E-01
 -0.81048E-02
 -0.95538E-02
 -0.60186E-02
 -0.34794E-02
 -0.24673E-02
 -0.50551E-02
 -0.25683E-02
 -0.55451E-02
 -0.38880E-02
 -0.99770E-02
 -0.77251E-02
 -0.69025E-02
  0.63365E-02
  0.39607E-02
 -0.23662E-02
 -0.56712E-02
 -0.11288E-01
 -0.93017E-02
 -0.15105E-01
 -0.11631E-01
  0.86568E-04
 -0.16368E-01
 -0.11486E-01
 -0.14613E-01
 -0.95284E-02
 -0.68080E-02
 -0.53112E-02
 -0.69451E-02
 -0.41679E-02
  0.40637E-02
  0.55237E-02
  0.18947E-02
 -0.36875E-02
 -0.48195E-02
 -0.19971E-02
 -0.26922E-01
 -0.28018E-01
 -0.23981E-01
 -0.22749E-01
  0.11129E-02
 -0.14920E-01
 -0.40981E-03
 -0.17766E-02
 -0.22531E-02
 -0.39633E-02
 -0.34454E-02
 -0.52635E-02
 -0.21143E-01
 -0.40899E-02
 -0.18307E-01
 -0.58173E-02
 -0.41425E-02
 -0.56915E-02
 -0.36781E-02
 -0.51631E-02
 -0.29359E-02
 -0.41243E-02
 -0.18513E-02
 -0.27872E-02
 -0.54831E-03
 -0.11650E-02
  0.95984E-03
  0.51280E-03
 -0.16870E-02
  0.20184E-03
 -0.20825E-02
 -0.86808E-05
  0.20486E-02
  0.21595E-02
  0.39512E-02
  0.44198E-02
  0.59854E-02
  0.68244E-02
 -0.24257E-02
  0.81272E-02
  0.71533E-02
  0.90376E-02
 -0.16555E-01
  0.93259E-02
 -0.45198E-02
 -0.50613E-02
 -0.19646E-01
 -0.17059E-01
  0.50269E-02
 -0.26752E-02
  0.53425E-03
 -0.18064E-02
  0.13356E-02
 -0.94023E-03
  0.63628E-03
 -0.80451E-02
 -0.10437E-01
 -0.41572E-01
 -0.20019E-01
 -0.71521E-02
 -0.79544E-02
  0.12254E-02
  0.26580E-02
  0.23498E-02
  0.79466E-02
  0.96323E-02
 -0.15922E-01
 -0.12925E-01
 -0.13956E-01
 -0.99293E-02
 -0.10262E-01
  0.51753E-02
 -0.10066E-01
 -0.10846E-01
 -0.87731E-02
 -0.11348E-01
 -0.94877E-02
 -0.11693E-01
 -0.10351E-01
 -0.12600E-01
 -0.12592E-01
  0.30225E-02
  0.17567E-02
  0.41465E-02
 -0.42638E-02
 -0.68131E-02
 -0.66734E-02
 -0.13095E-01
 -0.12947E-01
  0.84823E-02
  0.98869E-02
  0.11196E-01
 -0.44647E-01
 -0.12823E-01
  0.42532E-02
 -0.76669E-02
 -0.37671E-02
 -0.36119E-02
  0.51019E-02
  0.11127E-01
  0.78278E-02
 -0.75136E-02
 -0.13571E-02
 -0.12103E-02
 -0.13403E-01
 -0.13143E-01
 -0.13659E-01
 -0.17232E-01
 -0.13515E-01
 -0.20091E-01
  0.88212E-02
  0.48834E-02
  0.55874E-02
  0.57546E-02
 -0.16651E-01
 -0.22004E-01
  0.12612E-01
 -0.12770E-01
 -0.12961E-01
 -0.13327E-01
 -0.13146E-01
  0.65277E-03
  0.48782E-03
  0.74855E-02
 -0.76759E-02
 -0.85401E-02
 -0.13472E-01
 -0.92414E-02
 -0.12215E-01
 -0.44813E-02
  0.50688E-02
  0.42119E-02
 -0.13953E-01
 -0.14690E-01
  0.12157E-01
  0.58115E-02
 -0.55196E-02
 -0.63673E-02
 -0.93090E-02
 -0.71890E-02
 -0.36543E-02
 -0.39217E-02
 -0.46211E-03
 -0.12312E-03
  0.31980E-02
  0.44558E-02
  0.73792E-02
  0.99479E-02
  0.11751E-01
  0.15237E-01
  0.15574E-01
  0.19412E-01
  0.18388E-01
  0.22110E-01
  0.20365E-01
  0.23407E-01
  0.21523E-01
 -0.10025E-01
  0.25773E-01
  0.26128E-01
  0.28938E-01
  0.18869E-01
  0.19870E-01
  0.21390E-02
  0.17454E-02
 -0.32884E-01
 -0.69617E-03
  0.22787E-02
  0.18088E-02
  0.39970E-02
  0.37163E-02
  0.51533E-02
  0.49409E-02
  0.52376E-02
  0.58670E-02
  0.58428E-02
  0.61053E-02
  0.60511E-02
  0.33955E-02
  0.47260E-02
  0.32408E-02
  0.46238E-02
  0.53348E-02
  0.51580E-02
  0.33283E-02
  0.54149E-02
  0.51626E-02
  0.60852E-02
  0.60513E-02
  0.49614E-02
  0.48670E-02
 -0.12238E-01
 -0.75459E-02
 -0.49242E-02
 -0.65865E-02
 -0.38369E-02
 -0.43132E-02
 -0.17942E-02
 -0.20497E-02
 -0.17631E-03
 -0.14356E-02
  0.28490E-03
 -0.21343E-02
 -0.22979E-03
 -0.13849E-02
 -0.43801E-02
  0.47077E-02
  0.44697E-02
  0.58681E-02
  0.59277E-02
 -0.37603E-02
  0.79215E-02
  0.67616E-02
 -0.29246E-02
 -0.45092E-02
 -0.41591E-02
  0.21392E-02
 -0.98836E-02
  0.51109E-02
  0.60389E-02
 -0.21911E-01
 -0.11235E-01
 -0.14207E-01
  0.31509E-02
  0.28038E-02
  0.38299E-02
 -0.13275E-01
 -0.13497E-01
 -0.12954E-01
 -0.38759E-01
  0.28773E-03
 -0.16083E-02
  0.10853E-01
  0.11686E-01
 -0.17623E-01
 -0.21034E-01
  0.20014E-01
 -0.65325E-03
 -0.38017E-02
  0.22034E-01
  0.20240E-01
  0.13941E-01
  0.28190E-01
  0.31024E-01
 -0.11837E-01
 -0.12645E-01
  0.49637E-02
  0.55440E-02
  0.57263E-02
  0.59560E-02
  0.58658E-02
  0.54246E-02
  0.57053E-02
  0.58735E-02
  0.64305E-02
 -0.28669E-03
 -0.42677E-01
  0.49948E-02
  0.54780E-02
  0.60429E-02
  0.59739E-02
 -0.14588E-01
 -0.15747E-01
 -0.59470E-02
 -0.45631E-02
 -0.25711E-02
  0.59642E-02
  0.41006E-02
  0.36786E-02
  0.14786E-02
  0.20159E-02
  0.46007E-02
  0.26787E-02
  0.53741E-02
  0.34052E-02
 -0.45926E-03
  0.41828E-03
  0.34808E-02
  0.96273E-04
  0.27572E-02
 -0.12270E-02
 -0.13101E-01
 -0.16280E-01
  0.48015E-02
  0.36781E-02
  0.14852E-02
 -0.34636E-02
  0.92078E-02
 -0.13705E-01
  0.23794E-02
 -0.37507E-03
 -0.58484E-02
 -0.13033E-01
  0.60392E-02
 -0.55831E-02
 -0.14628E-01
 -0.17560E-01
 -0.15387E-01
 -0.17635E-01
 -0.15339E-01
 -0.16750E-01
 -0.14933E-01
 -0.16001E-01
 -0.14587E-01
 -0.16086E-01
 -0.14219E-01
 -0.16047E-01
 -0.35728E-02
  0.50962E-02
 -0.13383E-01
 -0.14848E-01
 -0.11555E-01
 -0.12918E-01
 -0.86663E-02
 -0.10421E-01
 -0.14376E-01
 -0.12622E-01
 -0.16000E-01
 -0.15613E-01
 -0.18907E-01
 -0.20588E-01
 -0.23556E-01
 -0.16357E-01
 -0.13706E-01
 -0.99454E-02
 -0.12409E-01
 -0.69459E-02
  0.66382E-02
 -0.16360E-02
  0.71519E-02
  0.62055E-02
  0.82874E-02
 -0.13483E-01
 -0.13711E-01
 -0.18854E-01
 -0.26944E-01
 -0.28936E-01
  0.50406E-02
 -0.11112E-01
 -0.11212E-01
 -0.32575E-02
 -0.25033E-01
 -0.29403E-01
 -0.25343E-01
 -0.28569E-01
 -0.91234E-02
 -0.13616E-02
  0.64667E-02
  0.29382E-01
  0.31945E-01
  0.27172E-01
  0.15419E-01
  0.81356E-03
  0.15379E-02
 -0.31698E-02
 -0.34316E-01
 -0.11041E-01
  0.34149E-02
  0.48217E-03
  0.23957E-02
 -0.27347E-01
 -0.22249E-01
 -0.27475E-01
  0.41517E-02
 -0.15492E-01
 -0.17118E-01
  0.12747E-01
  0.44475E-02
  0.36751E-02
 -0.17701E-01
 -0.16746E-01
 -0.20923E-01
 -0.14019E-01
 -0.17448E-01
 -0.99731E-02
 -0.81325E-02
 -0.42232E-02
 -0.52859E-02
 -0.38754E-03
 -0.11000E-02
  0.31478E-02
  0.25436E-02
  0.63930E-02
  0.54411E-02
  0.95651E-02
  0.93604E-02
  0.13013E-01
  0.13409E-01
  0.16568E-01
  0.17562E-01
  0.20064E-01
  0.21854E-01
  0.18663E-01
  0.87586E-02
  0.22998E-01
  0.25176E-01
  0.98164E-02
  0.25241E-01
  0.27467E-01
  0.20234E-01
  0.35587E-02
  0.28486E-01
  0.29832E-01
  0.28390E-01
  0.23396E-01
  0.31719E-01
  0.31941E-01
  0.16124E-02
  0.25025E-01
  0.23435E-01
  0.34920E-01
 -0.15809E-01
  0.10494E-01
  0.11214E-01
 -0.83946E-02
 -0.88361E-02
 -0.69544E-02
 -0.12902E-01
 -0.62793E-02
 -0.10852E-01
 -0.11490E-01
  0.34591E-01
 -0.49157E-02
  0.33480E-01
  0.12421E-01
  0.52505E-02
  0.59026E-02
  0.65369E-02
  0.65132E-02
 -0.96370E-02
 -0.15523E-01
  0.29762E-01
 -0.82907E-02
  0.31106E-01
  0.48735E-02
 -0.22200E-02
 -0.17531E-01
 -0.12687E-01
 -0.12574E-01
 -0.17737E-01
  0.59595E-02
  0.49942E-02
  0.52623E-02
  0.55480E-02
  0.52425E-02
  0.58296E-02
  0.50412E-02
  0.42122E-02
  0.42382E-02
  0.31605E-02
  0.33886E-02
  0.21566E-02
  0.25784E-02
  0.12719E-02
  0.18592E-02
  0.30906E-02
  0.25140E-02
  0.13435E-02
  0.21324E-02
  0.11380E-02
  0.20295E-02
  0.36600E-02
  0.13509E-02
  0.22353E-02
  0.28629E-02
  0.30529E-02
  0.27088E-02
 -0.31733E-02
 -0.11930E-01
 -0.14155E-01
 -0.12801E-01
 -0.14185E-01
 -0.12486E-01
 -0.14711E-01
 -0.12910E-01
 -0.10547E-01
 -0.10204E-01
 -0.97214E-02
 -0.63114E-02
 -0.50018E-02
 -0.25817E-03
  0.25249E-02
 -0.19492E-02
  0.49987E-02
  0.44888E-02
 -0.13522E-01
  0.31762E-01
  0.21279E-01
  0.69144E-02
 -0.92667E-02
  0.18282E-01
  0.18636E-01
 -0.14015E-01
  0.58815E-02
  0.65330E-02
 -0.15531E-02
  0.13552E-02
  0.11821E-01
  0.70634E-02
  0.56608E-02
  0.54694E-02
 -0.25031E-01
  0.29734E-01
 -0.25269E-02
 -0.20963E-02
 -0.38725E-02
 -0.12596E-02
 -0.26034E-02
 -0.39795E-03
  0.70110E-02
 -0.66274E-02
  0.39584E-02
  0.46923E-02
  0.34215E-02
  0.73255E-02
  0.38187E-02
 -0.12773E-02
  0.60952E-02
  0.68617E-02
 -0.45236E-02
  0.79569E-02
  0.18018E-01
 -0.10410E-01
  0.89807E-02
  0.13498E-01
  0.22034E-01
  0.81447E-02
 -0.18689E-01
 -0.24597E-01
 -0.26603E-01
 -0.31133E-01
  0.51025E-02
 -0.11794E-01
 -0.11622E-01
 -0.11077E-01
 -0.11615E-01
  0.70029E-02
 -0.28429E-01
 -0.33155E-01
 -0.58784E-02
 -0.16714E-01
 -0.15477E-01
 -0.16843E-01
  0.24734E-01
  0.23498E-01
  0.21960E-01
  0.22351E-01
  0.20638E-01
 -0.11852E-01
 -0.10426E-01
  0.24939E-02
  0.15963E-02
  0.42603E-02
  0.36416E-02
 -0.53955E-02
 -0.17590E-01
 -0.17602E-01
  0.33531E-02
  0.18085E-02
 -0.51568E-02
  0.64193E-02
  0.36225E-01
  0.38190E-01
 -0.11130E-01
 -0.10734E-01
  0.41013E-03
  0.10195E-02
  0.28990E-01
 -0.21950E-01
 -0.75979E-02
 -0.12128E-01
 -0.11783E-01
 -0.12264E-01
  0.10741E-01
  0.34101E-02
  0.87315E-02
 -0.12669E-01
 -0.22283E-02
 -0.16634E-01
  0.37384E-02
 -0.11650E-01
 -0.13845E-01
  0.18088E-02
 -0.44116E-02
  0.36341E-02
 -0.48536E-02
 -0.50589E-02
 -0.75042E-02
  0.46107E-02
 -0.22546E-01
  0.69562E-02
  0.67290E-02
  0.52200E-03
  0.52680E-02
 -0.10693E-01
  0.63298E-02
 -0.35483E-02
 -0.28042E-02
 -0.47626E-03
 -0.13750E-01
 -0.43441E-02
  0.41489E-02
 -0.14623E-01
 -0.12637E-01
 -0.12477E-01
 -0.12505E-01
 -0.18728E-01
 -0.19147E-01
 -0.14002E-01
  0.39731E-02
  0.58241E-02
  0.55375E-02
  0.59640E-02
  0.60393E-02
  0.58353E-02
  0.62211E-02
 -0.12686E-01
 -0.23057E-01
  0.41993E-02
  0.46756E-02
 -0.26038E-01
 -0.28006E-01
 -0.43018E-03
  0.29648E-02
  0.29853E-02
  0.25196E-02
  0.51464E-02
 -0.20622E-01
 -0.23707E-02
  0.18312E-02
 -0.11651E-01
 -0.11854E-01
 -0.12134E-01
 -0.31486E-01
 -0.29166E-01
 -0.33284E-01
 -0.41273E-01
 -0.28833E-01
  0.39120E-01
 -0.54055E-02
  0.23348E-02
  0.23512E-01
  0.22697E-01
 -0.96495E-02
  0.36647E-02
  0.29830E-01
  0.29834E-01
  0.17346E-03
  0.29110E-02
  0.23929E-02
  0.55130E-02
  0.51384E-02
  0.58550E-02
  0.77072E-02
  0.72029E-02
  0.73592E-02
 -0.11731E-01
 -0.46453E-02
 -0.69380E-03
 -0.16689E-02
 -0.12601E-01
  0.19577E-01
  0.18315E-01
  0.16779E-01
  0.15666E-01
  0.19499E-01
  0.64813E-03
 -0.21922E-02
  0.11261E-01
 -0.24945E-02
 -0.20525E-02
 -0.11792E-01
 -0.11894E-01
 -0.12766E-01
 -0.13046E-01
 -0.12850E-01
  0.56971E-02
  0.54037E-02
  0.51981E-02
  0.51016E-02
  0.52600E-02
  0.49951E-02
 -0.88103E-02
 -0.16175E-01
 -0.14731E-01
 -0.21771E-01
  0.13293E-01
  0.12648E-01
 -0.10982E-01
 -0.11524E-01
 -0.98317E-02
 -0.10517E-01
 -0.64157E-02
 -0.16884E-02
  0.68326E-02
 -0.81499E-02
  0.19542E-01
  0.16826E-01
  0.25160E-01
  0.22340E-01
  0.15196E-01
  0.28304E-01
  0.12660E-03
  0.92443E-02
  0.66500E-02
 -0.13393E-01
 -0.13962E-01
 -0.51375E-02
 -0.26404E-01
 -0.21566E-01
 -0.35292E-01
 -0.30467E-01
 -0.34976E-01
  0.26066E-01
  0.11471E-01
  0.16851E-01
  0.17149E-01
  0.18679E-01
 -0.64815E-02
 -0.87220E-02
 -0.59465E-02
  0.64205E-02
  0.69039E-02
  0.62144E-02
  0.65314E-02
  0.72122E-02
 -0.41423E-02
 -0.42882E-02
 -0.43318E-02
 -0.32819E-02
 -0.38027E-02
  0.12977E-01
  0.13726E-01
 -0.11313E-01
 -0.17947E-01
  0.44204E-02
  0.15271E-02
 -0.12324E-02
  0.48807E-03
 -0.65362E-02
  0.49752E-02
  0.18126E-02
  0.42492E-02
  0.98841E-02
  0.91753E-02
 -0.20827E-01
 -0.20549E-01
 -0.20309E-01
 -0.18057E-01
  0.11484E-01
 -0.22362E-02
  0.26559E-03
  0.15620E-03
  0.46061E-02
 -0.15114E-01
 -0.16694E-01
 -0.16004E-01
 -0.16201E-01
 -0.15784E-01
 -0.15176E-01
 -0.56768E-02
 -0.19784E-01
 -0.20994E-03
  0.37155E-02
  0.48993E-02
 -0.12920E-01
  0.64772E-02
  0.57654E-02
 -0.14388E-01
 -0.13865E-01
 -0.14297E-01
 -0.13274E-01
 -0.15856E-02
  0.43231E-02
 -0.11877E-01
  0.49815E-02
  0.51053E-02
  0.54306E-02
  0.52627E-02
  0.74338E-02
  0.15813E-02
  0.29030E-01
  0.69307E-02
  0.66174E-02
  0.74898E-02
 -0.66538E-02
  0.16651E-01
  0.23157E-01
  0.27183E-01
  0.58604E-02
 -0.15822E-01
 -0.16027E-01
 -0.16672E-01
  0.34470E-01
  0.42291E-02
  0.16065E-01
  0.20878E-02
  0.25404E-01
 -0.12328E-01
  0.25324E-01
  0.26384E-01
 -0.25308E-01
 -0.78385E-02
 -0.12161E-01
  0.14215E-01
 -0.18359E-01
 -0.20606E-01
 -0.19712E-01
 -0.17269E-01
 -0.11406E-01
  0.25146E-02
  0.28017E-02
  0.28704E-01
  0.24715E-01
  0.33159E-01
 -0.21430E-01
 -0.20210E-01
 -0.18025E-01
 -0.26725E-01
  0.80518E-02
 -0.24935E-02
  0.45012E-03
 -0.13988E-01
 -0.33732E-01
 -0.37312E-01
 -0.42798E-01
 -0.35137E-01
  0.90669E-02
  0.59931E-02
 -0.90266E-03
  0.88755E-03
  0.36534E-02
  0.16841E-01
  0.18499E-01
  0.20238E-01
  0.14852E-01
 -0.10263E-01
 -0.91501E-02
 -0.20393E-01
 -0.21411E-01
 -0.18646E-01
  0.13823E-01
  0.18937E-01
  0.23546E-01
  0.33872E-01
  0.12914E-01
  0.34124E-02
 -0.21425E-02
 -0.13472E-01
 -0.13517E-01
  0.56215E-02
  0.54231E-02
  0.10061E-01
 -0.11758E-01
  0.44725E-02
 -0.91942E-02
 -0.10606E-01
  0.38954E-02
  0.40253E-02
  0.44132E-02
  0.44783E-02
  0.46896E-02
 -0.17017E-01
 -0.16689E-01
 -0.24709E-01
 -0.30054E-01
 -0.12981E-01
 -0.14986E-01
 -0.18877E-02
  0.51575E-02
 -0.89479E-02
 -0.10100E-01
  0.49630E-02
  0.38257E-01
  0.35480E-01
  0.38821E-01
  0.36115E-01
  0.38482E-01
  0.40126E-01
  0.39725E-02
  0.50229E-02
 -0.44075E-02
 -0.10756E-01
 -0.11172E-01
 -0.12657E-01
 -0.10133E-01
 -0.96665E-02
 -0.12347E-01
 -0.22420E-01
 -0.66206E-02
 -0.45775E-02
 -0.20387E-01
  0.95796E-02
 -0.18674E-01
 -0.27625E-01
 -0.37274E-01
 -0.12217E-01
  0.71204E-02
  0.41292E-01
 -0.39552E-01
 -0.14141E-01
 -0.12550E-01
 -0.13861E-01
 -0.11208E-01
 -0.11917E-01
 -0.16528E-01
 -0.34677E-01
 -0.16951E-02
 -0.75485E-02
 -0.82714E-02
 -0.16808E-01
  0.15591E-01
  0.62030E-02
 -0.82774E-02
 -0.10459E-01
 -0.67090E-02
 -0.70990E-02
 -0.75783E-02
 -0.71650E-02
 -0.17558E-01
 -0.17054E-01
 -0.17330E-01
 -0.40289E-02
 -0.41748E-02
 -0.19567E-01
 -0.13222E-02
  0.14664E-03
 -0.47193E-03
 -0.16292E-01
 -0.15963E-01
 -0.10096E-02
 -0.74558E-02
  0.28367E-01
  0.27957E-01
 -0.30487E-01
  0.24512E-01
  0.24202E-01
  0.26100E-01
 -0.16766E-01
 -0.16299E-01
 -0.14346E-01
  0.73473E-02
 -0.42279E-02
 -0.12115E-01
 -0.14605E-01
  0.47463E-02
  0.48569E-02
  0.46906E-02
  0.48999E-02
 -0.11503E-01
  0.50492E-03
 -0.11548E-01
 -0.12037E-01
  0.32413E-01
 -0.13730E-01
  0.68434E-02
  0.31718E-01
  0.24594E-02
 -0.10080E-01
 -0.22243E-01
 -0.14750E-02
 -0.10631E-01
 -0.20274E-01
 -0.19449E-01
 -0.28730E-01
 -0.16521E-02
 -0.31975E-01
 -0.26575E-01
 -0.34966E-01
 -0.11596E-01
 -0.24366E-01
  0.49337E-02
 -0.37398E-03
 -0.14136E-01
 -0.13984E-01
 -0.21708E-01
 -0.16928E-01
 -0.16339E-01
 -0.18195E-01
  0.71351E-03
 -0.17375E-03
 -0.17536E-01
  0.56721E-03
 -0.78212E-03
 -0.15683E-02
  0.26819E-04
  0.30215E-02
  0.15825E-02
  0.74294E-04
  0.42962E-02
  0.43069E-02
  0.59407E-02
  0.47697E-02
  0.29612E-02
  0.41912E-01
  0.41179E-01
  0.21513E-01
  0.23803E-01
  0.39288E-02
  0.32702E-02
  0.17376E-02
  0.23161E-02
  0.55923E-03
 -0.20937E-03
 -0.17053E-02
 -0.25468E-02
 -0.46242E-02
 -0.38833E-02
 -0.56005E-02
 -0.75950E-02
 -0.61652E-02
  0.36475E-02
 -0.91593E-03
  0.28213E-02
  0.57873E-02
  0.78446E-02
  0.10706E-01
  0.11788E-01
  0.13633E-01
  0.14100E-01
  0.16026E-01
 -0.12714E-01
 -0.13018E-01
  0.23976E-01
 -0.14456E-01
 -0.12137E-01
 -0.57385E-03
  0.42371E-02
 -0.13981E-01
  0.14416E-01
 -0.12587E-01
 -0.94673E-02
  0.25573E-01
  0.26456E-01
  0.27565E-01
  0.63143E-02
 -0.12559E-01
  0.19319E-01
 -0.11626E-01
  0.49296E-02
  0.49119E-02
  0.48980E-02
  0.48092E-02
 -0.21026E-01
 -0.12677E-02
  0.20417E-01
  0.22162E-01
  0.22302E-01
  0.57938E-02
  0.52519E-02
  0.43634E-02
  0.45971E-02
  0.80264E-03
 -0.34911E-01
  0.90797E-02
  0.67855E-02
 -0.47704E-01
  0.73248E-03
 -0.29255E-02
 -0.32398E-02
 -0.75627E-02
 -0.74285E-02
  0.39511E-02
  0.25295E-02
  0.14284E-01
 -0.16718E-01
 -0.12258E-01
  0.54995E-02
  0.45437E-02
 -0.13568E-01
  0.58088E-02
  0.56484E-02