# vtk DataFile Version 2.0
Unstructured Grid UFVM-ECOMOD
ASCII
DATASET UNSTRUCTURED_GRID
 POINTS         1420  float
  0.00000E+00  0.00000E+00  0.00000E+00
  0.40000E+01  0.00000E+00  0.00000E+00
  0.40000E+01  0.20000E+01  0.00000E+00
  0.00000E+00  0.20000E+01  0.00000E+00
  0.10433E+01  0.10046E+01  0.00000E+00
  0.10392E+01  0.96756E+00  0.00000E+00
  0.10272E+01  0.93281E+00  0.00000E+00
  0.10079E+01  0.90258E+00  0.00000E+00
  0.98260E+00  0.87876E+00  0.00000E+00
  0.95293E+00  0.86285E+00  0.00000E+00
  0.92072E+00  0.85585E+00  0.00000E+00
  0.88798E+00  0.85820E+00  0.00000E+00
  0.85679E+00  0.86974E+00  0.00000E+00
  0.82910E+00  0.88977E+00  0.00000E+00
  0.80665E+00  0.91701E+00  0.00000E+00
  0.79085E+00  0.94975E+00  0.00000E+00
  0.78270E+00  0.98595E+00  0.00000E+00
  0.78270E+00  0.10233E+01  0.00000E+00
  0.79085E+00  0.10595E+01  0.00000E+00
  0.80665E+00  0.10922E+01  0.00000E+00
  0.82910E+00  0.11195E+01  0.00000E+00
  0.85679E+00  0.11395E+01  0.00000E+00
  0.88798E+00  0.11511E+01  0.00000E+00
  0.92072E+00  0.11534E+01  0.00000E+00
  0.95293E+00  0.11464E+01  0.00000E+00
  0.98260E+00  0.11305E+01  0.00000E+00
  0.10079E+01  0.11067E+01  0.00000E+00
  0.10272E+01  0.10764E+01  0.00000E+00
  0.10392E+01  0.10417E+01  0.00000E+00
  0.10000E+00  0.00000E+00  0.00000E+00
  0.20000E+00  0.00000E+00  0.00000E+00
  0.30000E+00  0.00000E+00  0.00000E+00
  0.40000E+00  0.00000E+00  0.00000E+00
  0.50000E+00  0.00000E+00  0.00000E+00
  0.60000E+00  0.00000E+00  0.00000E+00
  0.70000E+00  0.00000E+00  0.00000E+00
  0.80000E+00  0.00000E+00  0.00000E+00
  0.90000E+00  0.00000E+00  0.00000E+00
  0.10000E+01  0.00000E+00  0.00000E+00
  0.11000E+01  0.00000E+00  0.00000E+00
  0.12000E+01  0.00000E+00  0.00000E+00
  0.13000E+01  0.00000E+00  0.00000E+00
  0.14000E+01  0.00000E+00  0.00000E+00
  0.15000E+01  0.00000E+00  0.00000E+00
  0.16000E+01  0.00000E+00  0.00000E+00
  0.17000E+01  0.00000E+00  0.00000E+00
  0.18000E+01  0.00000E+00  0.00000E+00
  0.19000E+01  0.00000E+00  0.00000E+00
  0.20000E+01  0.00000E+00  0.00000E+00
  0.21000E+01  0.00000E+00  0.00000E+00
  0.22000E+01  0.00000E+00  0.00000E+00
  0.23000E+01  0.00000E+00  0.00000E+00
  0.24000E+01  0.00000E+00  0.00000E+00
  0.25000E+01  0.00000E+00  0.00000E+00
  0.26000E+01  0.00000E+00  0.00000E+00
  0.27000E+01  0.00000E+00  0.00000E+00
  0.28000E+01  0.00000E+00  0.00000E+00
  0.29000E+01  0.00000E+00  0.00000E+00
  0.30000E+01  0.00000E+00  0.00000E+00
  0.31000E+01  0.00000E+00  0.00000E+00
  0.32000E+01  0.00000E+00  0.00000E+00
  0.33000E+01  0.00000E+00  0.00000E+00
  0.34000E+01  0.00000E+00  0.00000E+00
  0.35000E+01  0.00000E+00  0.00000E+00
  0.36000E+01  0.00000E+00  0.00000E+00
  0.37000E+01  0.00000E+00  0.00000E+00
  0.38000E+01  0.00000E+00  0.00000E+00
  0.39000E+01  0.00000E+00  0.00000E+00
  0.40000E+01  0.10000E+00  0.00000E+00
  0.40000E+01  0.20000E+00  0.00000E+00
  0.40000E+01  0.30000E+00  0.00000E+00
  0.40000E+01  0.40000E+00  0.00000E+00
  0.40000E+01  0.50000E+00  0.00000E+00
  0.40000E+01  0.60000E+00  0.00000E+00
  0.40000E+01  0.70000E+00  0.00000E+00
  0.40000E+01  0.80000E+00  0.00000E+00
  0.40000E+01  0.90000E+00  0.00000E+00
  0.40000E+01  0.10000E+01  0.00000E+00
  0.40000E+01  0.11000E+01  0.00000E+00
  0.40000E+01  0.12000E+01  0.00000E+00
  0.40000E+01  0.13000E+01  0.00000E+00
  0.40000E+01  0.14000E+01  0.00000E+00
  0.40000E+01  0.15000E+01  0.00000E+00
  0.40000E+01  0.16000E+01  0.00000E+00
  0.40000E+01  0.17000E+01  0.00000E+00
  0.40000E+01  0.18000E+01  0.00000E+00
  0.40000E+01  0.19000E+01  0.00000E+00
  0.39000E+01  0.20000E+01  0.00000E+00
  0.38000E+01  0.20000E+01  0.00000E+00
  0.37000E+01  0.20000E+01  0.00000E+00
  0.36000E+01  0.20000E+01  0.00000E+00
  0.35000E+01  0.20000E+01  0.00000E+00
  0.34000E+01  0.20000E+01  0.00000E+00
  0.33000E+01  0.20000E+01  0.00000E+00
  0.32000E+01  0.20000E+01  0.00000E+00
  0.31000E+01  0.20000E+01  0.00000E+00
  0.30000E+01  0.20000E+01  0.00000E+00
  0.29000E+01  0.20000E+01  0.00000E+00
  0.28000E+01  0.20000E+01  0.00000E+00
  0.27000E+01  0.20000E+01  0.00000E+00
  0.26000E+01  0.20000E+01  0.00000E+00
  0.25000E+01  0.20000E+01  0.00000E+00
  0.24000E+01  0.20000E+01  0.00000E+00
  0.23000E+01  0.20000E+01  0.00000E+00
  0.22000E+01  0.20000E+01  0.00000E+00
  0.21000E+01  0.20000E+01  0.00000E+00
  0.20000E+01  0.20000E+01  0.00000E+00
  0.19000E+01  0.20000E+01  0.00000E+00
  0.18000E+01  0.20000E+01  0.00000E+00
  0.17000E+01  0.20000E+01  0.00000E+00
  0.16000E+01  0.20000E+01  0.00000E+00
  0.15000E+01  0.20000E+01  0.00000E+00
  0.14000E+01  0.20000E+01  0.00000E+00
  0.13000E+01  0.20000E+01  0.00000E+00
  0.12000E+01  0.20000E+01  0.00000E+00
  0.11000E+01  0.20000E+01  0.00000E+00
  0.10000E+01  0.20000E+01  0.00000E+00
  0.90000E+00  0.20000E+01  0.00000E+00
  0.80000E+00  0.20000E+01  0.00000E+00
  0.70000E+00  0.20000E+01  0.00000E+00
  0.60000E+00  0.20000E+01  0.00000E+00
  0.50000E+00  0.20000E+01  0.00000E+00
  0.40000E+00  0.20000E+01  0.00000E+00
  0.30000E+00  0.20000E+01  0.00000E+00
  0.20000E+00  0.20000E+01  0.00000E+00
  0.10000E+00  0.20000E+01  0.00000E+00
  0.00000E+00  0.19000E+01  0.00000E+00
  0.00000E+00  0.18000E+01  0.00000E+00
  0.00000E+00  0.17000E+01  0.00000E+00
  0.00000E+00  0.16000E+01  0.00000E+00
  0.00000E+00  0.15000E+01  0.00000E+00
  0.00000E+00  0.14000E+01  0.00000E+00
  0.00000E+00  0.13000E+01  0.00000E+00
  0.00000E+00  0.12000E+01  0.00000E+00
  0.00000E+00  0.11000E+01  0.00000E+00
  0.00000E+00  0.10000E+01  0.00000E+00
  0.00000E+00  0.90000E+00  0.00000E+00
  0.00000E+00  0.80000E+00  0.00000E+00
  0.00000E+00  0.70000E+00  0.00000E+00
  0.00000E+00  0.60000E+00  0.00000E+00
  0.00000E+00  0.50000E+00  0.00000E+00
  0.00000E+00  0.40000E+00  0.00000E+00
  0.00000E+00  0.30000E+00  0.00000E+00
  0.00000E+00  0.20000E+00  0.00000E+00
  0.00000E+00  0.10000E+00  0.00000E+00
  0.19476E+01  0.85910E-01  0.00000E+00
  0.19458E+01  0.19136E+01  0.00000E+00
  0.29500E+01  0.19134E+01  0.00000E+00
  0.24474E+01  0.19097E+01  0.00000E+00
  0.27468E+01  0.83590E-01  0.00000E+00
  0.23486E+01  0.86060E-01  0.00000E+00
  0.39202E+01  0.95555E+00  0.00000E+00
  0.31524E+01  0.79860E-01  0.00000E+00
  0.15434E+01  0.81060E-01  0.00000E+00
  0.15561E+01  0.19190E+01  0.00000E+00
  0.33401E+01  0.19193E+01  0.00000E+00
  0.55000E+00  0.86600E-01  0.00000E+00
  0.54321E+00  0.18970E+01  0.00000E+00
  0.12576E+01  0.94170E-01  0.00000E+00
  0.12595E+01  0.19031E+01  0.00000E+00
  0.85260E-01  0.64891E+00  0.00000E+00
  0.39224E+01  0.13485E+01  0.00000E+00
  0.97850E-01  0.13456E+01  0.00000E+00
  0.85263E+00  0.92690E-01  0.00000E+00
  0.90232E+00  0.82868E+00  0.00000E+00
  0.39134E+01  0.55000E+00  0.00000E+00
  0.85000E+00  0.19134E+01  0.00000E+00
  0.90219E+00  0.11796E+01  0.00000E+00
  0.73730E-01  0.95061E+00  0.00000E+00
  0.34521E+01  0.83790E-01  0.00000E+00
  0.36500E+01  0.19134E+01  0.00000E+00
  0.86600E-01  0.16500E+01  0.00000E+00
  0.91260E-01  0.35125E+00  0.00000E+00
  0.39122E+01  0.16529E+01  0.00000E+00
  0.79770E-01  0.11522E+01  0.00000E+00
  0.10500E+01  0.19134E+01  0.00000E+00
  0.10436E+01  0.96320E-01  0.00000E+00
  0.34641E+00  0.19165E+01  0.00000E+00
  0.35117E+00  0.98680E-01  0.00000E+00
  0.17489E+01  0.19152E+01  0.00000E+00
  0.17477E+01  0.85050E-01  0.00000E+00
  0.21486E+01  0.19136E+01  0.00000E+00
  0.21494E+01  0.85650E-01  0.00000E+00
  0.25494E+01  0.86540E-01  0.00000E+00
  0.39145E+01  0.11516E+01  0.00000E+00
  0.36500E+01  0.85140E-01  0.00000E+00
  0.29463E+01  0.83430E-01  0.00000E+00
  0.31423E+01  0.19179E+01  0.00000E+00
  0.27493E+01  0.19098E+01  0.00000E+00
  0.39010E+01  0.34178E+00  0.00000E+00
  0.39152E+01  0.74696E+00  0.00000E+00
  0.90200E-01  0.18440E+01  0.00000E+00
  0.38461E+01  0.84370E-01  0.00000E+00
  0.93600E-01  0.14922E+00  0.00000E+00
  0.38527E+01  0.19149E+01  0.00000E+00
  0.93499E+00  0.11827E+01  0.00000E+00
  0.91733E+00  0.12123E+01  0.00000E+00
  0.95207E+00  0.12164E+01  0.00000E+00
  0.93165E+00  0.12471E+01  0.00000E+00
  0.97084E+00  0.12505E+01  0.00000E+00
  0.89437E+00  0.12359E+01  0.00000E+00
  0.94819E+00  0.12843E+01  0.00000E+00
  0.99065E+00  0.12884E+01  0.00000E+00
  0.96461E+00  0.13251E+01  0.00000E+00
  0.10110E+01  0.13286E+01  0.00000E+00
  0.10361E+01  0.12902E+01  0.00000E+00
  0.10582E+01  0.13315E+01  0.00000E+00
  0.10845E+01  0.12921E+01  0.00000E+00
  0.11074E+01  0.13353E+01  0.00000E+00
  0.11351E+01  0.12931E+01  0.00000E+00
  0.11593E+01  0.13388E+01  0.00000E+00
  0.11880E+01  0.12934E+01  0.00000E+00
  0.12152E+01  0.13430E+01  0.00000E+00
  0.12465E+01  0.12932E+01  0.00000E+00
  0.12751E+01  0.13479E+01  0.00000E+00
  0.13089E+01  0.12933E+01  0.00000E+00
  0.13392E+01  0.13518E+01  0.00000E+00
  0.13744E+01  0.12961E+01  0.00000E+00
  0.13422E+01  0.12370E+01  0.00000E+00
  0.14103E+01  0.12382E+01  0.00000E+00
  0.13774E+01  0.11782E+01  0.00000E+00
  0.14470E+01  0.11795E+01  0.00000E+00
  0.14109E+01  0.11172E+01  0.00000E+00
  0.14840E+01  0.11192E+01  0.00000E+00
  0.14492E+01  0.10568E+01  0.00000E+00
  0.15224E+01  0.10578E+01  0.00000E+00
  0.15578E+01  0.11226E+01  0.00000E+00
  0.15980E+01  0.10587E+01  0.00000E+00
  0.16344E+01  0.11264E+01  0.00000E+00
  0.16757E+01  0.10600E+01  0.00000E+00
  0.17140E+01  0.11301E+01  0.00000E+00
  0.17569E+01  0.10614E+01  0.00000E+00
  0.17947E+01  0.11329E+01  0.00000E+00
  0.18396E+01  0.10629E+01  0.00000E+00
  0.18817E+01  0.11349E+01  0.00000E+00
  0.19258E+01  0.10641E+01  0.00000E+00
  0.14867E+01  0.99385E+00  0.00000E+00
  0.19700E+01  0.11392E+01  0.00000E+00
  0.20134E+01  0.10659E+01  0.00000E+00
  0.20560E+01  0.11394E+01  0.00000E+00
  0.21025E+01  0.10675E+01  0.00000E+00
  0.21507E+01  0.11553E+01  0.00000E+00
  0.21942E+01  0.10716E+01  0.00000E+00
  0.22424E+01  0.11506E+01  0.00000E+00
  0.22867E+01  0.10733E+01  0.00000E+00
  0.17993E+01  0.99189E+00  0.00000E+00
  0.20571E+01  0.99091E+00  0.00000E+00
[...]
 POINT_DATA         1420
  
 SCALARS WL      float 1
 LOOKUP_TABLE default
  0.90441E-02
 -0.39676E-04
  0.43197E-02
  0.48930E-02
 -0.30760E-01
 -0.28001E-01
 -0.24377E-01
 -0.22168E-01
 -0.21378E-01
 -0.24223E-01
 -0.34655E-01
 -0.37172E-01
 -0.22736E-01
 -0.54477E-02
  0.12004E-01
  0.23030E-01
  0.28368E-01
  0.28646E-01
  0.22977E-01
  0.11511E-01
 -0.44414E-02
 -0.25057E-01
 -0.47883E-01
 -0.58074E-01
 -0.47276E-01
 -0.39838E-01
 -0.37824E-01
 -0.36379E-01
 -0.33627E-01
  0.88191E-02
  0.81884E-02
  0.71641E-02
  0.57933E-02
  0.41500E-02
  0.22372E-02
  0.16959E-03
 -0.17374E-02
 -0.35045E-02
 -0.47999E-02
 -0.53866E-02
 -0.52110E-02
 -0.44061E-02
 -0.33111E-02
 -0.21279E-02
 -0.10659E-02
 -0.16551E-03
  0.62603E-03
  0.13328E-02
  0.18757E-02
  0.22560E-02
  0.25453E-02
  0.28415E-02
  0.32818E-02
  0.39540E-02
  0.48286E-02
  0.57560E-02
  0.64506E-02
  0.66753E-02
  0.63625E-02
  0.56117E-02
  0.46318E-02
  0.36103E-02
  0.26893E-02
  0.19451E-02
  0.14010E-02
  0.95612E-03
  0.53119E-03
  0.14695E-03
  0.00000E+00
  0.00000E+00
  0.00000E+00
  0.00000E+00
  0.00000E+00
  0.00000E+00
  0.00000E+00
  0.00000E+00
  0.00000E+00
  0.00000E+00
  0.00000E+00
  0.00000E+00
  0.00000E+00
  0.00000E+00
  0.00000E+00
  0.00000E+00
  0.00000E+00
  0.00000E+00
  0.00000E+00
  0.62848E-02
  0.86102E-02
  0.94704E-02
  0.90130E-02
  0.75328E-02
  0.57658E-02
  0.42494E-02
  0.31962E-02
  0.26105E-02
  0.23753E-02
  0.23495E-02
  0.24345E-02
  0.25517E-02
  0.26617E-02
  0.27632E-02
  0.28383E-02
  0.28802E-02
  0.28734E-02
  0.27871E-02
  0.25793E-02
  0.22452E-02
  0.17716E-02
  0.12524E-02
  0.73691E-03
  0.29992E-03
  0.83147E-04
  0.15345E-03
  0.56759E-03
  0.12887E-02
  0.20864E-02
  0.29211E-02
  0.35747E-02
  0.40450E-02
  0.43595E-02
  0.44900E-02
  0.46175E-02
  0.47024E-02
  0.47798E-02
  0.48424E-02
  0.49933E-02
  0.52814E-02
  0.57070E-02
  0.63033E-02
  0.69846E-02
  0.77168E-02
  0.84776E-02
  0.91210E-02
  0.96454E-02
  0.10012E-01
  0.10183E-01
  0.10188E-01
  0.10066E-01
  0.98783E-02
  0.96688E-02
  0.94658E-02
  0.92812E-02
  0.91633E-02
  0.90861E-02
  0.16995E-02
  0.23683E-02
  0.23630E-02
  0.28750E-02
  0.61107E-02
  0.30484E-02
 -0.15314E-02
  0.51446E-02
 -0.16561E-02
  0.48468E-03
  0.49179E-02
  0.33362E-02
  0.45240E-02
 -0.48312E-02
  0.78118E-04
  0.99255E-02
  0.16086E-02
  0.81730E-02
 -0.27261E-02
 -0.31260E-01
 -0.54913E-03
  0.31781E-02
 -0.44926E-01
  0.10155E-01
  0.23394E-02
  0.93378E-02
  0.59422E-02
  0.92052E-02
  0.52010E-02
  0.94501E-02
  0.14965E-02
 -0.52219E-02
  0.47525E-02
  0.65632E-02
  0.14818E-02
  0.27101E-03
  0.28432E-02
  0.24644E-02
  0.43581E-02
 -0.43610E-03
  0.12002E-02
  0.65928E-02
  0.28287E-02
  0.25527E-02
  0.11414E-03
 -0.11976E-02
  0.50926E-02
  0.32789E-03
  0.89243E-02
  0.74679E-02
 -0.46410E-01
 -0.32745E-01
 -0.33184E-01
 -0.24831E-01
 -0.25875E-01
 -0.21882E-01
 -0.19432E-01
 -0.20495E-01
 -0.15419E-01
 -0.16186E-01
 -0.20142E-01
 -0.15700E-01
 -0.18338E-01
 -0.13910E-01
 -0.15066E-01
 -0.11079E-01
 -0.11054E-01
 -0.75422E-02
 -0.58522E-02
 -0.36589E-02
 -0.77972E-03
 -0.36867E-03
  0.20704E-02
  0.20132E-02
  0.28601E-02
 -0.27225E-02
 -0.36546E-02
 -0.14563E-01
 -0.13078E-01
 -0.23441E-01
 -0.18196E-01
 -0.12606E-01
 -0.16248E-01
 -0.15468E-01
 -0.17941E-01
 -0.19483E-01
 -0.20694E-01
 -0.20944E-01
 -0.19917E-01
 -0.16478E-01
 -0.14937E-01
 -0.24066E-01
 -0.10009E-01
 -0.96283E-02
 -0.58155E-02
 -0.65082E-02
 -0.29590E-02
 -0.55704E-02
 -0.26783E-02
 -0.60595E-02
 -0.17807E-01
 -0.86977E-02
 -0.26421E-02
 -0.64319E-02
 -0.25030E-02
 -0.55295E-02
 -0.18273E-02
 -0.37443E-02
 -0.12379E-02
 -0.26099E-02
 -0.14679E-02
 -0.26417E-02
 -0.26019E-02
 -0.37310E-02
 -0.44392E-02
 -0.53155E-02
 -0.59028E-02
 -0.99793E-02
 -0.26503E-02
 -0.57790E-02
  0.11367E-02
 -0.53149E-02
 -0.12220E-01
 -0.10456E-01
 -0.10498E-01
 -0.40403E-02
 -0.36840E-02
 -0.18259E-01
 -0.84627E-02
 -0.62688E-02
 -0.25826E-02
 -0.15897E-02
 -0.59275E-03
 -0.43092E-02
  0.56046E-04
 -0.35918E-01
  0.87942E-03
  0.21132E-02
  0.80650E-03
 -0.51896E-02
 -0.29636E-02
 -0.23108E-02
 -0.33367E-01
 -0.21107E-01
 -0.28309E-01
 -0.26166E-01
 -0.23862E-02
 -0.30253E-02
 -0.80031E-04
  0.25956E-02
  0.37605E-02
  0.35427E-02
  0.16373E-02
 -0.38473E-01
 -0.29026E-01
 -0.37695E-01
 -0.26119E-01
 -0.18046E-01
 -0.15628E-01
 -0.10356E-01
 -0.20241E-01
 -0.12828E-01
 -0.15189E-01
 -0.10544E-01
 -0.11998E-01
  0.34413E-02
  0.44184E-02
 -0.89520E-02
 -0.98694E-02
 -0.74143E-02
 -0.24467E-02
 -0.46444E-03
 -0.35234E-03
  0.16568E-02
  0.23465E-02
  0.36433E-02
  0.47218E-02
  0.52220E-02
  0.64934E-02
  0.64689E-02
  0.76990E-02
 -0.41493E-02
  0.81541E-02
  0.91000E-02
  0.64322E-02
  0.10089E-01
  0.10419E-01
  0.11749E-01
  0.11547E-01
  0.13103E-01
  0.72998E-02
  0.12319E-01
  0.13850E-01
 -0.89795E-04
  0.24247E-02
  0.29395E-02
  0.26228E-01
 -0.12452E-01
 -0.10224E-01
 -0.12299E-01
 -0.10177E-01
 -0.87774E-02
 -0.85568E-02
 -0.95864E-02
 -0.78116E-02
 -0.94177E-02
 -0.84454E-02
 -0.63590E-02
 -0.62517E-02
 -0.42300E-02
 -0.33963E-02
 -0.16886E-02
 -0.36982E-03
  0.79516E-03
  0.25346E-02
  0.18290E-01
  0.29932E-02
  0.49469E-02
  0.48329E-02
  0.66896E-02
  0.63178E-02
  0.78773E-02
  0.86081E-02
  0.92662E-02
  0.15624E-02
  0.10254E-01
  0.35771E-02
  0.10451E-01
 -0.39939E-01
 -0.63697E-02
  0.43765E-02
 -0.15146E-01
 -0.66395E-02
 -0.52364E-02
  0.12676E-01
  0.74867E-02
  0.23894E-02
  0.43083E-02
  0.37350E-02
  0.48793E-02
 -0.17406E-02
 -0.30500E-02
  0.24161E-02
  0.41604E-03
  0.61672E-02
  0.62839E-02
  0.68540E-02
 -0.69739E-02
  0.52710E-02
  0.32641E-02
  0.10379E-01
 -0.10714E-01
  0.35268E-02
  0.13973E-01
  0.12621E-01
 -0.16212E-01
 -0.50303E-02
 -0.37543E-02
 -0.35823E-02
 -0.23047E-02
 -0.17762E-02
 -0.83069E-03
  0.11976E-04
  0.53608E-03
  0.14789E-02
  0.18364E-02
  0.26407E-02
  0.21942E-02
  0.30867E-02
  0.32982E-02
  0.30511E-02
  0.31899E-02
  0.18562E-02
  0.21266E-02
 -0.55065E-03
  0.66583E-03
 -0.30807E-02
 -0.29263E-03
 -0.39985E-02
  0.42997E-04
 -0.24140E-02
  0.13802E-02
  0.19228E-03
  0.28754E-02
  0.22978E-02
  0.41462E-02
  0.37511E-02
  0.51219E-02
 -0.76585E-02
  0.50659E-02
  0.48060E-02
  0.54257E-02
  0.23761E-02
 -0.44418E-02
  0.58355E-02
 -0.87548E-02
  0.65718E-02
 -0.21488E-02
 -0.37893E-01
  0.73611E-02
  0.83825E-02
  0.69831E-02
  0.11040E-02
  0.20084E-02
 -0.95877E-03
 -0.19571E-02
  0.62506E-02
 -0.11345E-01
  0.11339E-01
  0.15546E-01
  0.15168E-01
  0.60362E-02
  0.63781E-02
  0.71284E-02
  0.38896E-02
  0.24810E-02
  0.12316E-02
  0.11523E-01
 -0.26740E-02
  0.17259E-01
  0.47265E-02
 -0.38963E-02
 -0.49775E-02
 -0.15190E-02
  0.49987E-02
  0.42029E-02
  0.56892E-02
 -0.80295E-02
  0.16200E-02
 -0.45528E-02
  0.29883E-02
  0.16015E-01
 -0.61415E-02
  0.76239E-02
  0.18834E-02
  0.22640E-02
  0.14101E-01
 -0.39012E-02
 -0.25340E-02
 -0.40804E-02
 -0.26480E-02
  0.17726E-01
  0.43349E-02
  0.73506E-02
  0.78618E-02
 -0.70830E-02
  0.57273E-02
  0.53512E-02
  0.59023E-02
  0.66174E-02
 -0.17316E-02
  0.25521E-02
  0.18731E-02
  0.90869E-03
 -0.24505E-03
  0.77682E-03
  0.18406E-01
  0.16153E-01
  0.25651E-02
  0.19983E-02
  0.87322E-03
  0.20265E-02
  0.14208E-02
  0.24913E-02
  0.23790E-02
  0.31422E-02
  0.32561E-02
  0.36373E-02
  0.37860E-02
  0.38105E-02
  0.39003E-02
  0.37469E-02
  0.37194E-02
  0.35196E-02
  0.33571E-02
  0.31833E-02
  0.27686E-02
  0.27134E-02
  0.20881E-02
  0.21484E-02
  0.12814E-02
  0.14938E-02
  0.41654E-03
  0.86880E-03
 -0.43802E-03
  0.35412E-03
 -0.10057E-02
 -0.26492E-04
 -0.10632E-02
 -0.13642E-03
  0.35219E-03
  0.11105E-03
  0.32847E-02
  0.11913E-02
 -0.10335E-03
 -0.35555E-03
 -0.81620E-03
  0.84189E-02
  0.75551E-02
 -0.74750E-02
 -0.15976E-03
 -0.27466E-03
  0.57386E-02
  0.59858E-02
  0.48518E-02
  0.51292E-02
  0.34848E-02
  0.35414E-02
  0.42850E-02
  0.34463E-02
  0.52692E-02
  0.40226E-02
 -0.35976E-02
 -0.23048E-02
  0.32578E-02
  0.21478E-02
 -0.24803E-01
 -0.31673E-02
 -0.40733E-02
 -0.49226E-02
 -0.26457E-02
 -0.14305E-02
 -0.15569E-02
 -0.97344E-02
 -0.49849E-02
 -0.30013E-02
  0.73723E-02
  0.58004E-02
  0.18294E-01
  0.15112E-01
  0.21681E-01
  0.62715E-02
 -0.21953E-01
 -0.75805E-02
 -0.68663E-02
 -0.31803E-02
 -0.24471E-02
  0.29479E-04
 -0.50748E-03
 -0.14427E-01
 -0.17721E-01
 -0.16491E-01
 -0.19070E-01
 -0.23004E-01
 -0.22292E-01
 -0.29039E-01
 -0.27991E-01
 -0.35414E-01
 -0.34233E-01
  0.64386E-02
  0.63904E-02
  0.16448E-01
  0.12872E-01
  0.11752E-01
  0.25212E-02
  0.19397E-02
 -0.14500E-02
 -0.46975E-02
 -0.45324E-03
  0.25639E-02
 -0.17842E-01
 -0.15557E-01
 -0.18249E-01
 -0.15594E-01
 -0.60244E-02
  0.11955E-02
  0.21216E-02
 -0.39795E-01
 -0.37986E-01
 -0.20517E-02
 -0.20818E-02
  0.93361E-02
  0.64280E-02
 -0.15627E-01
  0.51910E-02
  0.48568E-02
  0.47441E-02
  0.43483E-02
  0.36167E-02
 -0.33394E-02
  0.10261E-01
 -0.33299E-01
 -0.35459E-01
 -0.38163E-01
 -0.32437E-01
 -0.31900E-01
 -0.24194E-01
 -0.29734E-01
  0.13947E-01
  0.21007E-02
  0.39367E-02
  0.53981E-02
  0.32636E-02
  0.25839E-02
  0.22499E-02
  0.17879E-02
  0.12829E-02
  0.15821E-02
  0.60284E-02
 -0.32150E-01
 -0.42709E-03
  0.57542E-03
  0.48088E-03
  0.32031E-02
  0.16002E-02
  0.40097E-02
  0.23126E-02
  0.55200E-02
  0.15769E-02
  0.49998E-03
 -0.33228E-03
 -0.12974E-02
 -0.23453E-02
 -0.30788E-02
 -0.41301E-02
 -0.46206E-02
  0.97836E-03
 -0.24836E-03
 -0.96532E-03
 -0.25843E-02
 -0.59173E-02
 -0.64103E-02
 -0.33061E-01
 -0.24954E-03
 -0.66225E-03
  0.44590E-02
  0.28028E-02
  0.22107E-02
 -0.20812E-01
 -0.28788E-01
 -0.66928E-02
 -0.62746E-02
  0.62160E-03
  0.52809E-04
 -0.21291E-01
 -0.12015E-03
 -0.53341E-03
 -0.96736E-02
  0.82525E-02
  0.69378E-02
  0.60068E-02
  0.89486E-02
  0.96118E-02
  0.10418E-01
  0.97501E-02
  0.10315E-01
  0.10952E-01
  0.10597E-01
  0.11133E-01
  0.10221E-01
 -0.18598E-01
 -0.15043E-01
  0.11788E-02
  0.20281E-02
  0.54542E-02
  0.21932E-03
 -0.18879E-01
  0.35095E-02
  0.43289E-02
  0.64443E-02
 -0.72435E-02
 -0.47655E-03
  0.36372E-03
  0.32878E-03
 -0.92314E-03
  0.58789E-02
 -0.13012E-01
 -0.11359E-01
 -0.13104E-01
 -0.76211E-02
 -0.69089E-03
 -0.51886E-02
  0.84304E-02
  0.10638E-01
  0.10998E-01
 -0.39633E-02
  0.40869E-02
  0.11640E-01
 -0.38168E-02
  0.12015E-01
 -0.22194E-02
 -0.15324E-03
  0.18409E-02
 -0.16581E-02
 -0.13918E-02
 -0.23084E-01
 -0.76340E-02
 -0.28638E-01
 -0.12167E-02
 -0.23162E-02
 -0.20834E-01
 -0.67349E-02
  0.36763E-02
 -0.88566E-02
  0.35316E-02
  0.12567E-01
  0.90830E-02
  0.19931E-02
  0.14128E-01
  0.68393E-02
  0.14140E-02
  0.55205E-02
  0.15098E-02
 -0.37183E-02
  0.18207E-01
  0.17107E-01
  0.20876E-01
  0.13931E-01
  0.15454E-01
 -0.17488E-02
 -0.81448E-02
  0.15387E-02
  0.56596E-02
 -0.37348E-01
 -0.36627E-01
 -0.22479E-01
 -0.88670E-02
  0.36437E-02
  0.40968E-02
 -0.37380E-01
 -0.35742E-01
 -0.33251E-01
  0.14755E-01
  0.19569E-01
  0.17078E-02
 -0.29029E-01
  0.28210E-01
 -0.33387E-01
  0.65187E-02
  0.80279E-02
  0.48696E-02
 -0.28434E-02
  0.90032E-02
  0.79483E-02
  0.24983E-01
 -0.38721E-01
 -0.13560E-02
 -0.70991E-02
 -0.22878E-02
 -0.18217E-02
 -0.12684E-02
 -0.19321E-01
 -0.78545E-03
 -0.21927E-02
  0.43380E-02
  0.18295E-02
 -0.25422E-01
  0.91950E-02
  0.52494E-02
  0.40728E-02
  0.45004E-02
 -0.20966E-01
  0.61518E-02
  0.59405E-02
  0.61884E-02
  0.53824E-02
  0.28177E-02
  0.24826E-02
  0.10470E-01
  0.10626E-01
  0.10155E-01
  0.10089E-01
  0.10804E-01
  0.99394E-02
 -0.66517E-02
  0.54380E-02
  0.24711E-01
  0.59878E-02
  0.68370E-02
  0.74405E-02
  0.79350E-02
  0.82757E-02
 -0.37221E-02
 -0.49735E-02
 -0.35445E-01
 -0.31595E-01
 -0.32570E-01
 -0.31285E-01
  0.31442E-02
  0.35094E-02
  0.94066E-02
  0.91450E-02
  0.97007E-02
  0.87735E-02
  0.92008E-02
  0.82954E-02
  0.79434E-02
  0.86597E-02
 -0.25431E-02
 -0.37759E-02
 -0.12119E-01
  0.73671E-02
  0.71516E-02
  0.65775E-02
  0.63894E-02
  0.59914E-02
  0.70063E-02
  0.71970E-02
  0.20131E-01
 -0.89879E-02
 -0.83078E-02
 -0.33127E-03
  0.47661E-02
  0.50561E-02
 -0.14324E-02
 -0.29185E-01
 -0.16657E-01
 -0.19478E-01
  0.15121E-01
 -0.11400E-02
  0.19604E-04
  0.18518E-01
 -0.18404E-01
  0.97112E-02
 -0.43722E-01
 -0.19058E-01
 -0.42932E-02
 -0.55927E-02
 -0.54646E-02
 -0.55162E-02
 -0.17309E-01
 -0.48296E-02
 -0.13159E-01
  0.72013E-02
 -0.28165E-01
  0.80180E-02
 -0.19914E-02
 -0.71954E-03
  0.23729E-02
 -0.27074E-01
 -0.28716E-01
  0.58197E-02
 -0.21157E-01
 -0.14025E-01
 -0.57098E-02
 -0.31042E-01
  0.53985E-02
 -0.88071E-03
 -0.60492E-02
 -0.10679E-01
 -0.15749E-02
 -0.57702E-02
  0.12436E-02
 -0.15241E-03
 -0.17442E-01
  0.13842E-01
 -0.22850E-01
 -0.34961E-02
  0.88739E-02
  0.47071E-02
  0.69019E-03
 -0.68883E-04
  0.42614E-03
 -0.55803E-02
  0.39544E-02
 -0.34563E-02
  0.45401E-02
 -0.68979E-03
 -0.40452E-01
  0.87124E-02
  0.85004E-02
  0.11833E-01
  0.11416E-01
  0.11771E-01
 -0.42756E-01
  0.97858E-03
  0.11503E-02
  0.16443E-02
  0.11991E-02
  0.16352E-02
  0.75975E-03
  0.20256E-02
  0.21015E-02
 -0.62573E-03
 -0.27675E-03
  0.77316E-03
  0.57340E-03
  0.14493E-02
  0.15950E-02
  0.20848E-02
  0.22747E-02
  0.27588E-02
  0.25934E-02
 -0.57933E-02
  0.89614E-03
  0.29106E-02
 -0.53159E-02
 -0.57905E-02
 -0.77973E-02
 -0.80818E-02
 -0.22225E-01
 -0.31469E-02
 -0.71953E-02
 -0.61068E-02
 -0.10205E-01
 -0.92687E-02
  0.25285E-01
  0.50928E-02
  0.25036E-02
  0.46707E-02
  0.75948E-02
 -0.80325E-02
  0.15834E-02
  0.12904E-01
  0.10231E-01
  0.10119E-01
  0.96962E-02
  0.96403E-02
  0.93302E-02
  0.91842E-02
  0.96168E-02
 -0.17948E-03
  0.87912E-02
  0.12242E-02
  0.75400E-03
 -0.17035E-02
 -0.10081E-01
 -0.13819E-01
 -0.12520E-01
 -0.13965E-01
 -0.13539E-01
  0.21450E-02
  0.24875E-02
  0.26670E-02
  0.27434E-02
  0.27146E-02
  0.28790E-02
  0.29282E-02
  0.94695E-02
  0.60702E-02
  0.26731E-02
  0.27439E-02
  0.29218E-02
  0.28447E-02
  0.25405E-02
  0.24443E-02
  0.29139E-02
  0.30245E-02
  0.29172E-02
  0.30598E-02
  0.30495E-02
  0.32974E-02
  0.28002E-02
  0.29807E-02
  0.46685E-02
  0.51573E-02
 -0.34284E-01
 -0.98621E-04
 -0.31667E-02
 -0.10713E-02
 -0.57158E-02
 -0.84413E-02
  0.99477E-03
  0.30926E-03
  0.12635E-02
 -0.55070E-03
  0.27648E-02
  0.33093E-02
  0.25485E-02
  0.26290E-02
 -0.10294E-01
 -0.97833E-02
 -0.53861E-02
 -0.48703E-02
 -0.71742E-02
 -0.13981E-02
 -0.16289E-02
  0.95445E-03
  0.10506E-02
 -0.23463E-01
  0.35868E-02
  0.38993E-02
  0.47502E-02
  0.41723E-02
  0.33889E-02
  0.94743E-03
 -0.19005E-02
  0.48110E-02
  0.49864E-02
  0.50416E-02
  0.54416E-02
  0.54381E-02
  0.53229E-02
  0.77600E-02
 -0.50169E-02
  0.62270E-03
  0.23328E-02
  0.42815E-03
  0.26966E-02
  0.28235E-02
  0.26548E-02
  0.29672E-02
 -0.56510E-02
  0.52703E-02
 -0.10052E-02
 -0.79254E-02
  0.21402E-02
 -0.34639E-02
  0.32743E-02
  0.79974E-03
  0.13219E-03
  0.31351E-02
 -0.34394E-02
 -0.74484E-03
 -0.27426E-02
 -0.22648E-02
  0.24284E-02
  0.24673E-02
  0.18614E-02
  0.11379E-01
  0.12739E-01
 -0.85215E-03
  0.22101E-02
  0.26125E-02
  0.60105E-03
  0.72489E-03
  0.21538E-02
  0.90956E-03
  0.47763E-02
  0.47403E-02
  0.19549E-02
  0.45661E-03
  0.34904E-03
 -0.98102E-03
  0.76802E-03
  0.57100E-03
  0.11707E-03
  0.42008E-03
  0.10091E-02
  0.90956E-02
  0.90486E-02
  0.17017E-02
  0.21602E-02
  0.66130E-02
  0.60690E-02
  0.56140E-02
 -0.18122E-02
 -0.98836E-03
 -0.23805E-03
  0.39923E-03
  0.35986E-02
  0.24456E-02
  0.30203E-02
  0.15784E-02
  0.28017E-03
  0.50808E-02
  0.65262E-02
  0.27105E-02
  0.29943E-02
 -0.29411E-02
 -0.15376E-02
 -0.90842E-02
  0.85527E-02
  0.35754E-03
  0.27832E-02
  0.39158E-02
  0.52539E-02
 -0.27390E-02
  0.43626E-02
  0.96457E-03
  0.24748E-02
  0.22747E-02
  0.23849E-02
 -0.12093E-02
  0.52834E-02
  0.65497E-02
  0.59608E-02
 -0.47468E-02
 -0.15460E-02
 -0.41671E-02
  0.21599E-02
  0.19566E-02
  0.52909E-02
 -0.98331E-02
 -0.55649E-02
  0.35519E-02
 -0.58889E-03
  0.46822E-02
  0.56904E-02
 -0.11765E-01
 -0.85182E-02
  0.26143E-02
  0.83610E-02
  0.97091E-03
  0.32218E-02
  0.17271E-02
  0.36539E-02
 -0.24578E-02
  0.16456E-02
  0.90747E-02
  0.71315E-03
 -0.10014E-01
  0.91177E-02
  0.43063E-02
 -0.12900E-01
  0.42594E-02
  0.40168E-03
  0.30507E-02
 -0.52409E-02
  0.36004E-02
 -0.87937E-02
  0.99701E-02
  0.12627E-02
  0.83604E-02
 -0.15514E-01
 -0.78621E-02
  0.87777E-03
 -0.95068E-02
 -0.16723E-01
 -0.13999E-02
  0.12586E-02
 -0.14874E-01
  0.30811E-02
 -0.21220E-03
 -0.26642E-02
  0.97809E-03
 -0.17646E-01
 -0.30987E-02
  0.65307E-03
 -0.25450E-01
  0.76708E-02
 -0.12002E-01
 -0.52181E-02
  0.53699E-02
 -0.57478E-03
 -0.59305E-02
 -0.55800E-02
  0.77186E-02
  0.64913E-02
  0.29138E-02
  0.45575E-03
 -0.28700E-02
  0.75630E-02
 -0.99460E-03
 -0.10126E-02
 -0.10119E-01
  0.83882E-02
  0.85744E-02
  0.48837E-02
 -0.36639E-02
 -0.54093E-02
 -0.19238E-01
 -0.11392E-01
 -0.73949E-02
 -0.72852E-02
  0.10365E-01
 -0.55639E-03
 -0.48719E-03
  0.28209E-02
  0.55599E-02
  0.86467E-02
  0.94251E-02
  0.45066E-02
 -0.12515E-01
 -0.12803E-01
 -0.85271E-02
  0.93855E-03
  0.14364E-01
  0.74480E-03
 -0.14233E-01
  0.32234E-02
 -0.47702E-02
  0.23006E-01
 -0.41773E-03
  0.14692E-02
 -0.15510E-02
 -0.84751E-02
  0.11138E-01
 -0.33299E-04
  0.50776E-02
 -0.13321E-02
  0.71368E-02
 -0.16320E-01
  0.11662E-01
  0.12672E-01
  0.18281E-01
  0.10665E-01
  0.28300E-02
 -0.12202E-01
  0.85181E-02
  0.40553E-03
 -0.80969E-02
  0.33122E-02
 -0.34613E-02
  0.11016E-01
  0.27457E-02
 -0.62656E-02
  0.92536E-02
 -0.68723E-02
  0.15442E-02
  0.65010E-03
  0.11266E-03
  0.34820E-02
 -0.33003E-02
 -0.42977E-02
 -0.11724E-01
  0.65496E-02
 -0.20240E-01
  0.28425E-02
 -0.12441E-02
  0.33857E-02
  0.24967E-02
  0.99120E-02
  0.27466E-02
  0.19742E-03
 -0.20480E-01
  0.28726E-02
 -0.12303E-01
 -0.23349E-03
  0.43808E-02
  0.24907E-02
  0.35753E-02
  0.33010E-02
 -0.11348E-02
 -0.12397E-01
  0.42797E-03
  0.13866E-02
 -0.79080E-02
 -0.38167E-03
  0.31654E-02
  0.51034E-02
 -0.13666E-01
  0.33071E-02
 -0.60530E-02
  0.90718E-02
 -0.15775E-01
  0.10334E-01
 -0.10194E-02
  0.41260E-02
  0.22291E-02
 -0.35257E-02
  0.49255E-02
 -0.18007E-03
  0.56188E-02
  0.28766E-02
 -0.29641E-01
  0.63129E-02
  0.32196E-02
  0.12938E-01
  0.10133E-01
  0.66256E-02
  0.74932E-02
  0.64952E-02
  0.64167E-02
  0.54418E-02
  0.87668E-02
  0.57289E-02
  0.54587E-02
 -0.76069E-03
 -0.34843E-01
 -0.14428E-02
 -0.58666E-02
 -0.59416E-02
  0.57502E-02
 -0.43530E-02
 -0.80629E-02
 -0.79466E-03
 -0.88512E-03
  0.20974E-01
  0.22703E-01
  0.78487E-02
  0.31778E-02
  0.20377E-01
  0.82029E-02
  0.60036E-04
 -0.33722E-01
 -0.13749E-01
  0.88695E-03
 -0.56011E-02
  0.58385E-02
 -0.26374E-02
  0.18412E-02
 -0.21940E-02
 -0.41764E-02
  0.12832E-01
 -0.11766E-01
  0.29950E-02
  0.26658E-02
  0.81417E-02
 -0.28274E-01
  0.43821E-02
 -0.12587E-01
 -0.38861E-01
 -0.18017E-02
  0.24155E-02
  0.49150E-02
  0.90961E-02
  0.53124E-03
  0.78127E-03
 -0.33278E-02
 -0.97204E-02
 -0.34451E-01
  0.28995E-02
 -0.10694E-01
  0.24756E-02
  0.25746E-02
 -0.38785E-03
  0.74021E-02
 -0.28179E-01
  0.89634E-02
  0.49172E-02
 -0.31339E-01
  0.57608E-04
  0.52715E-02
  0.65332E-03
 -0.91675E-02
 -0.38791E-02
  0.12946E-01
  0.31073E-02
 -0.41663E-01
  0.16229E-01
  0.99936E-02
  0.87150E-02
  0.14292E-01
  0.96223E-02
 -0.46455E-02
 -0.98684E-02
  0.13804E-01
 -0.40006E-02
  0.30387E-02
  0.10426E-01
  0.11566E-01
  0.95349E-02
 -0.27935E-02
 -0.19710E-01
 -0.13547E-01
  0.40922E-02
 -0.10172E-01
 -0.18446E-01
  0.10184E-01
 -0.17900E-01
  0.11300E-02
  0.97869E-02
 -0.13295E-02
  0.11799E-02
 -0.63970E-02
 -0.82532E-03
  0.11036E-01
  0.22962E-01
 -0.29375E-01
  0.17457E-02
  0.55753E-02
 -0.11165E-02
 -0.38382E-01
 -0.22428E-01
 -0.63679E-02
 -0.28562E-02
 -0.17226E-02
 -0.78069E-03
  0.61670E-02
  0.76796E-02
  0.15051E-02
 -0.18940E-01
 -0.10674E-01
 -0.27516E-01
  0.61936E-02
 -0.14387E-01
  0.47764E-02
  0.10179E-01
  0.89102E-02
  0.35455E-03
 -0.79447E-02
 -0.14163E-01
 -0.19240E-02
  0.35877E-02
  0.83229E-02
 -0.13614E-01
 -0.11496E-01
 -0.43410E-01
 -0.36553E-01
  0.11119E-01
  0.75686E-02
  0.36883E-02
  0.22047E-02
 -0.17278E-02
  
 VECTORS vector_U float