# vtk DataFile Version 2.0
Unstructured Grid UFVM-ECOMOD
ASCII
DATASET UNSTRUCTURED_GRID
 POINTS         2086  float
  0.00000E+00  0.00000E+00  0.00000E+00
  0.40000E+01  0.00000E+00  0.00000E+00
  0.40000E+01  0.20000E+01  0.00000E+00
  0.00000E+00  0.20000E+01  0.00000E+00
  0.11787E+01  0.12812E+01  0.00000E+00
  0.11720E+01  0.12579E+01  0.00000E+00
  0.11523E+01  0.12361E+01  0.00000E+00
  0.11208E+01  0.12171E+01  0.00000E+00
  0.10795E+01  0.12021E+01  0.00000E+00
  0.10311E+01  0.11921E+01  0.00000E+00
  0.97842E+00  0.11877E+01  0.00000E+00
  0.92495E+00  0.11892E+01  0.00000E+00
  0.87399E+00  0.11964E+01  0.00000E+00
  0.82875E+00  0.12090E+01  0.00000E+00
  0.79207E+00  0.12262E+01  0.00000E+00
  0.76626E+00  0.12467E+01  0.00000E+00
  0.75294E+00  0.12695E+01  0.00000E+00
  0.75294E+00  0.12930E+01  0.00000E+00
  0.76626E+00  0.13158E+01  0.00000E+00
  0.79207E+00  0.13363E+01  0.00000E+00
  0.82875E+00  0.13535E+01  0.00000E+00
  0.87399E+00  0.13661E+01  0.00000E+00
  0.92495E+00  0.13733E+01  0.00000E+00
  0.97842E+00  0.13748E+01  0.00000E+00
  0.10311E+01  0.13704E+01  0.00000E+00
  0.10795E+01  0.13604E+01  0.00000E+00
  0.11208E+01  0.13454E+01  0.00000E+00
  0.11523E+01  0.13264E+01  0.00000E+00
  0.11720E+01  0.13046E+01  0.00000E+00
  0.11275E+01  0.10550E+01  0.00000E+00
  0.11246E+01  0.10357E+01  0.00000E+00
  0.11162E+01  0.10177E+01  0.00000E+00
  0.11028E+01  0.10019E+01  0.00000E+00
  0.10851E+01  0.98956E+00  0.00000E+00
  0.10644E+01  0.98129E+00  0.00000E+00
  0.10420E+01  0.97765E+00  0.00000E+00
  0.10192E+01  0.97887E+00  0.00000E+00
  0.99740E+00  0.98488E+00  0.00000E+00
  0.97809E+00  0.99529E+00  0.00000E+00
  0.96243E+00  0.10094E+01  0.00000E+00
  0.95141E+00  0.10265E+01  0.00000E+00
  0.94572E+00  0.10453E+01  0.00000E+00
  0.94572E+00  0.10647E+01  0.00000E+00
  0.95141E+00  0.10835E+01  0.00000E+00
  0.96243E+00  0.11005E+01  0.00000E+00
  0.97809E+00  0.11147E+01  0.00000E+00
  0.99740E+00  0.11251E+01  0.00000E+00
  0.10192E+01  0.11311E+01  0.00000E+00
  0.10420E+01  0.11323E+01  0.00000E+00
  0.10644E+01  0.11287E+01  0.00000E+00
  0.10851E+01  0.11204E+01  0.00000E+00
  0.11028E+01  0.11080E+01  0.00000E+00
  0.11162E+01  0.10923E+01  0.00000E+00
  0.11246E+01  0.10743E+01  0.00000E+00
  0.62875E+00  0.11344E+01  0.00000E+00
  0.62759E+00  0.10960E+01  0.00000E+00
  0.62419E+00  0.10600E+01  0.00000E+00
  0.61876E+00  0.10287E+01  0.00000E+00
  0.61163E+00  0.10040E+01  0.00000E+00
  0.60327E+00  0.98756E+00  0.00000E+00
  0.59419E+00  0.98030E+00  0.00000E+00
  0.58497E+00  0.98273E+00  0.00000E+00
  0.57617E+00  0.99469E+00  0.00000E+00
  0.56837E+00  0.10154E+01  0.00000E+00
  0.56204E+00  0.10436E+01  0.00000E+00
  0.55759E+00  0.10776E+01  0.00000E+00
  0.55529E+00  0.11150E+01  0.00000E+00
  0.55529E+00  0.11537E+01  0.00000E+00
  0.55759E+00  0.11912E+01  0.00000E+00
  0.56204E+00  0.12251E+01  0.00000E+00
  0.56837E+00  0.12533E+01  0.00000E+00
  0.57617E+00  0.12741E+01  0.00000E+00
  0.58497E+00  0.12860E+01  0.00000E+00
  0.59419E+00  0.12885E+01  0.00000E+00
  0.60327E+00  0.12812E+01  0.00000E+00
  0.61163E+00  0.12647E+01  0.00000E+00
  0.61876E+00  0.12401E+01  0.00000E+00
  0.62419E+00  0.12087E+01  0.00000E+00
  0.62759E+00  0.11728E+01  0.00000E+00
  0.10000E+00  0.00000E+00  0.00000E+00
  0.20000E+00  0.00000E+00  0.00000E+00
  0.30000E+00  0.00000E+00  0.00000E+00
  0.40000E+00  0.00000E+00  0.00000E+00
  0.50000E+00  0.00000E+00  0.00000E+00
  0.60000E+00  0.00000E+00  0.00000E+00
  0.70000E+00  0.00000E+00  0.00000E+00
  0.80000E+00  0.00000E+00  0.00000E+00
  0.90000E+00  0.00000E+00  0.00000E+00
  0.10000E+01  0.00000E+00  0.00000E+00
  0.11000E+01  0.00000E+00  0.00000E+00
  0.12000E+01  0.00000E+00  0.00000E+00
  0.13000E+01  0.00000E+00  0.00000E+00
  0.14000E+01  0.00000E+00  0.00000E+00
  0.15000E+01  0.00000E+00  0.00000E+00
  0.16000E+01  0.00000E+00  0.00000E+00
  0.17000E+01  0.00000E+00  0.00000E+00
  0.18000E+01  0.00000E+00  0.00000E+00
  0.19000E+01  0.00000E+00  0.00000E+00
  0.20000E+01  0.00000E+00  0.00000E+00
  0.21000E+01  0.00000E+00  0.00000E+00
  0.22000E+01  0.00000E+00  0.00000E+00
  0.23000E+01  0.00000E+00  0.00000E+00
  0.24000E+01  0.00000E+00  0.00000E+00
  0.25000E+01  0.00000E+00  0.00000E+00
  0.26000E+01  0.00000E+00  0.00000E+00
  0.27000E+01  0.00000E+00  0.00000E+00
  0.28000E+01  0.00000E+00  0.00000E+00
  0.29000E+01  0.00000E+00  0.00000E+00
  0.30000E+01  0.00000E+00  0.00000E+00
  0.31000E+01  0.00000E+00  0.00000E+00
  0.32000E+01  0.00000E+00  0.00000E+00
  0.33000E+01  0.00000E+00  0.00000E+00
  0.34000E+01  0.00000E+00  0.00000E+00
  0.35000E+01  0.00000E+00  0.00000E+00
  0.36000E+01  0.00000E+00  0.00000E+00
  0.37000E+01  0.00000E+00  0.00000E+00
  0.38000E+01  0.00000E+00  0.00000E+00
  0.39000E+01  0.00000E+00  0.00000E+00
  0.40000E+01  0.10000E+00  0.00000E+00
  0.40000E+01  0.20000E+00  0.00000E+00
  0.40000E+01  0.30000E+00  0.00000E+00
  0.40000E+01  0.40000E+00  0.00000E+00
  0.40000E+01  0.50000E+00  0.00000E+00
  0.40000E+01  0.60000E+00  0.00000E+00
  0.40000E+01  0.70000E+00  0.00000E+00
  0.40000E+01  0.80000E+00  0.00000E+00
  0.40000E+01  0.90000E+00  0.00000E+00
  0.40000E+01  0.10000E+01  0.00000E+00
  0.40000E+01  0.11000E+01  0.00000E+00
  0.40000E+01  0.12000E+01  0.00000E+00
  0.40000E+01  0.13000E+01  0.00000E+00
  0.40000E+01  0.14000E+01  0.00000E+00
  0.40000E+01  0.15000E+01  0.00000E+00
  0.40000E+01  0.16000E+01  0.00000E+00
  0.40000E+01  0.17000E+01  0.00000E+00
  0.40000E+01  0.18000E+01  0.00000E+00
  0.40000E+01  0.19000E+01  0.00000E+00
  0.39000E+01  0.20000E+01  0.00000E+00
  0.38000E+01  0.20000E+01  0.00000E+00
  0.37000E+01  0.20000E+01  0.00000E+00
  0.36000E+01  0.20000E+01  0.00000E+00
  0.35000E+01  0.20000E+01  0.00000E+00
  0.34000E+01  0.20000E+01  0.00000E+00
  0.33000E+01  0.20000E+01  0.00000E+00
  0.32000E+01  0.20000E+01  0.00000E+00
  0.31000E+01  0.20000E+01  0.00000E+00
  0.30000E+01  0.20000E+01  0.00000E+00
  0.29000E+01  0.20000E+01  0.00000E+00
  0.28000E+01  0.20000E+01  0.00000E+00
  0.27000E+01  0.20000E+01  0.00000E+00
  0.26000E+01  0.20000E+01  0.00000E+00
  0.25000E+01  0.20000E+01  0.00000E+00
  0.24000E+01  0.20000E+01  0.00000E+00
  0.23000E+01  0.20000E+01  0.00000E+00
  0.22000E+01  0.20000E+01  0.00000E+00
  0.21000E+01  0.20000E+01  0.00000E+00
  0.20000E+01  0.20000E+01  0.00000E+00
  0.19000E+01  0.20000E+01  0.00000E+00
  0.18000E+01  0.20000E+01  0.00000E+00
  0.17000E+01  0.20000E+01  0.00000E+00
  0.16000E+01  0.20000E+01  0.00000E+00
  0.15000E+01  0.20000E+01  0.00000E+00
  0.14000E+01  0.20000E+01  0.00000E+00
  0.13000E+01  0.20000E+01  0.00000E+00
  0.12000E+01  0.20000E+01  0.00000E+00
  0.11000E+01  0.20000E+01  0.00000E+00
  0.10000E+01  0.20000E+01  0.00000E+00
  0.90000E+00  0.20000E+01  0.00000E+00
  0.80000E+00  0.20000E+01  0.00000E+00
  0.70000E+00  0.20000E+01  0.00000E+00
  0.60000E+00  0.20000E+01  0.00000E+00
  0.50000E+00  0.20000E+01  0.00000E+00
  0.40000E+00  0.20000E+01  0.00000E+00
  0.30000E+00  0.20000E+01  0.00000E+00
  0.20000E+00  0.20000E+01  0.00000E+00
  0.10000E+00  0.20000E+01  0.00000E+00
  0.00000E+00  0.19000E+01  0.00000E+00
  0.00000E+00  0.18000E+01  0.00000E+00
  0.00000E+00  0.17000E+01  0.00000E+00
  0.00000E+00  0.16000E+01  0.00000E+00
  0.00000E+00  0.15000E+01  0.00000E+00
  0.00000E+00  0.14000E+01  0.00000E+00
  0.00000E+00  0.13000E+01  0.00000E+00
  0.00000E+00  0.12000E+01  0.00000E+00
  0.00000E+00  0.11000E+01  0.00000E+00
  0.00000E+00  0.10000E+01  0.00000E+00
  0.00000E+00  0.90000E+00  0.00000E+00
  0.00000E+00  0.80000E+00  0.00000E+00
  0.00000E+00  0.70000E+00  0.00000E+00
  0.00000E+00  0.60000E+00  0.00000E+00
  0.00000E+00  0.50000E+00  0.00000E+00
  0.00000E+00  0.40000E+00  0.00000E+00
  0.00000E+00  0.30000E+00  0.00000E+00
  0.00000E+00  0.20000E+00  0.00000E+00
  0.00000E+00  0.10000E+00  0.00000E+00
  0.11961E+01  0.12633E+01  0.00000E+00
  0.21488E+01  0.93320E-01  0.00000E+00
  0.61866E+00  0.98978E+00  0.00000E+00
  0.20489E+01  0.19184E+01  0.00000E+00
  0.25498E+01  0.19136E+01  0.00000E+00
  0.29499E+01  0.86560E-01  0.00000E+00
  0.93236E+00  0.10310E+01  0.00000E+00
  0.17510E+01  0.72450E-01  0.00000E+00
  0.29467E+01  0.19168E+01  0.00000E+00
  0.25487E+01  0.85720E-01  0.00000E+00
  0.76221E+00  0.13471E+01  0.00000E+00
  0.39134E+01  0.10499E+01  0.00000E+00
  0.11777E+01  0.13352E+01  0.00000E+00
  0.75033E+00  0.75620E-01  0.00000E+00
  0.13476E+01  0.80200E-01  0.00000E+00
  0.10427E+01  0.86980E-01  0.00000E+00
  0.16534E+01  0.19146E+01  0.00000E+00
  0.33491E+01  0.86080E-01  0.00000E+00
  0.76560E-01  0.54986E+00  0.00000E+00
  0.33536E+01  0.19187E+01  0.00000E+00
  0.64251E+00  0.10384E+01  0.00000E+00
  0.54363E+00  0.10247E+01  0.00000E+00
  0.39158E+01  0.64933E+00  0.00000E+00
  0.53844E+00  0.12429E+01  0.00000E+00
  0.11152E+01  0.13830E+01  0.00000E+00
  0.39057E+01  0.13553E+01  0.00000E+00
  0.45348E+00  0.19192E+01  0.00000E+00
  0.84329E+00  0.13986E+01  0.00000E+00
  0.10069E+01  0.14153E+01  0.00000E+00
  0.79140E-01  0.15509E+01  0.00000E+00
  0.51664E+00  0.11388E+01  0.00000E+00
  0.13387E+01  0.19132E+01  0.00000E+00
  0.61809E+00  0.12788E+01  0.00000E+00
  0.44149E+00  0.86000E-01  0.00000E+00
  0.82010E-01  0.85167E+00  0.00000E+00
  0.79235E+00  0.11912E+01  0.00000E+00
  0.73934E+00  0.19100E+01  0.00000E+00
  0.97720E-01  0.12541E+01  0.00000E+00
  0.36625E+01  0.99060E-01  0.00000E+00
  0.36500E+01  0.19142E+01  0.00000E+00
  0.10534E+01  0.19002E+01  0.00000E+00
  0.93232E+00  0.10799E+01  0.00000E+00
  0.73234E+00  0.12821E+01  0.00000E+00
  0.11221E+01  0.11125E+01  0.00000E+00
  0.38972E+01  0.16498E+01  0.00000E+00
  0.39125E+01  0.34987E+00  0.00000E+00
  0.91360E-01  0.10554E+01  0.00000E+00
  0.66195E+00  0.11154E+01  0.00000E+00
  0.82340E-01  0.34870E+00  0.00000E+00
  0.18502E+01  0.19156E+01  0.00000E+00
  0.15459E+01  0.76350E-01  0.00000E+00
  0.19483E+01  0.85500E-01  0.00000E+00
[...]
 POINT_DATA         2086
  
 SCALARS WL      float 1
 LOOKUP_TABLE default
  0.11152E-01
  0.10391E-02
  0.67121E-02
  0.21659E-01
 -0.36463E-01
 -0.38694E-01
 -0.28563E-01
 -0.16868E-01
 -0.13943E-01
 -0.14283E-01
 -0.13472E-01
 -0.13416E-01
 -0.13368E-01
 -0.12536E-01
 -0.12050E-01
 -0.11816E-01
 -0.13261E-01
 -0.11526E-01
 -0.43095E-02
 -0.12378E-02
 -0.57980E-02
 -0.19531E-01
 -0.33596E-01
 -0.47802E-01
 -0.53374E-01
 -0.51035E-01
 -0.41172E-01
 -0.33696E-01
 -0.33374E-01
 -0.18476E-01
 -0.14226E-01
 -0.12350E-01
 -0.12538E-01
 -0.13433E-01
 -0.14298E-01
 -0.15873E-01
 -0.18382E-01
 -0.20479E-01
 -0.20533E-01
 -0.18907E-01
 -0.17513E-01
 -0.16180E-01
 -0.15307E-01
 -0.14683E-01
 -0.14183E-01
 -0.13860E-01
 -0.13720E-01
 -0.14131E-01
 -0.15170E-01
 -0.16645E-01
 -0.18128E-01
 -0.20408E-01
 -0.23861E-01
 -0.22629E-01
 -0.10823E-01
 -0.11553E-01
 -0.11749E-01
 -0.11438E-01
 -0.11187E-01
 -0.11250E-01
 -0.11871E-01
 -0.54284E-02
  0.10666E-01
  0.25909E-01
  0.35491E-01
  0.40641E-01
  0.43023E-01
  0.43454E-01
  0.42034E-01
  0.37765E-01
  0.28388E-01
  0.11700E-01
 -0.51942E-02
 -0.11370E-01
 -0.10995E-01
 -0.11588E-01
 -0.11243E-01
 -0.98572E-02
 -0.99684E-02
  0.10943E-01
  0.10465E-01
  0.97065E-02
  0.87404E-02
  0.76632E-02
  0.64164E-02
  0.53757E-02
  0.45476E-02
  0.41478E-02
  0.40642E-02
  0.41607E-02
  0.43309E-02
  0.44163E-02
  0.43256E-02
  0.43105E-02
  0.42528E-02
  0.42225E-02
  0.41331E-02
  0.40110E-02
  0.38151E-02
  0.36234E-02
  0.34170E-02
  0.32532E-02
  0.32872E-02
  0.34848E-02
  0.38819E-02
  0.44296E-02
  0.50406E-02
  0.56245E-02
  0.60888E-02
  0.62713E-02
  0.63432E-02
  0.63639E-02
  0.62008E-02
  0.59428E-02
  0.54591E-02
  0.46776E-02
  0.36348E-02
  0.21443E-02
  0.00000E+00
  0.00000E+00
  0.00000E+00
  0.00000E+00
  0.00000E+00
  0.00000E+00
  0.00000E+00
  0.00000E+00
  0.00000E+00
  0.00000E+00
  0.00000E+00
  0.00000E+00
  0.00000E+00
  0.00000E+00
  0.00000E+00
  0.00000E+00
  0.00000E+00
  0.00000E+00
  0.00000E+00
  0.93007E-02
  0.12066E-01
  0.12420E-01
  0.11296E-01
  0.98213E-02
  0.86185E-02
  0.74297E-02
  0.66691E-02
  0.67827E-02
  0.68963E-02
  0.70231E-02
  0.69650E-02
  0.66414E-02
  0.62890E-02
  0.63991E-02
  0.73091E-02
  0.82164E-02
  0.85751E-02
  0.88518E-02
  0.84423E-02
  0.74961E-02
  0.63717E-02
  0.50194E-02
  0.32986E-02
  0.10269E-02
 -0.21652E-02
 -0.55035E-02
 -0.78454E-02
 -0.81926E-02
 -0.59237E-02
 -0.17396E-02
  0.29753E-02
  0.75742E-02
  0.11918E-01
  0.15577E-01
  0.18446E-01
  0.20517E-01
  0.21650E-01
  0.21871E-01
  0.21722E-01
  0.22033E-01
  0.22555E-01
  0.23274E-01
  0.24158E-01
  0.25054E-01
  0.25757E-01
  0.26046E-01
  0.25685E-01
  0.24579E-01
  0.22897E-01
  0.20881E-01
  0.18735E-01
  0.16830E-01
  0.15108E-01
  0.13649E-01
  0.12582E-01
  0.11808E-01
  0.11355E-01
 -0.36664E-01
  0.35556E-02
 -0.11115E-01
  0.88086E-02
  0.61769E-02
  0.58428E-02
 -0.16540E-01
  0.41268E-02
  0.67303E-02
  0.37273E-02
 -0.28921E-02
 -0.15303E-03
 -0.32799E-01
  0.49789E-02
  0.41840E-02
  0.40570E-02
  0.41828E-02
  0.62880E-02
  0.15910E-01
  0.77938E-02
 -0.11588E-01
  0.32039E-01
  0.76648E-03
  0.34909E-01
 -0.45305E-01
 -0.10192E-02
  0.17050E-01
 -0.10739E-01
 -0.48529E-01
  0.23966E-01
  0.42707E-01
 -0.44539E-02
 -0.11056E-01
  0.83984E-02
  0.22127E-01
 -0.12279E-01
  0.55920E-02
  0.26578E-01
  0.49978E-02
  0.11529E-01
 -0.79991E-02
 -0.14793E-01
 -0.13872E-01
 -0.21728E-01
  0.37783E-02
  0.14774E-02
  0.25788E-01
 -0.11490E-01
  0.12950E-01
  0.69478E-02
  0.41447E-02
  0.39315E-02
  0.84508E-02
  0.33434E-02
  0.65644E-02
  0.66363E-02
  0.47546E-02
  0.63294E-02
  0.31836E-03
  0.22523E-01
 -0.10352E-01
 -0.22132E-01
  0.10195E-01
 -0.11717E-01
 -0.32974E-01
 -0.34609E-01
 -0.31228E-01
 -0.34948E-01
 -0.30526E-01
 -0.36158E-01
 -0.32449E-01
 -0.38429E-01
 -0.42357E-01
 -0.44555E-01
 -0.47338E-01
 -0.49033E-01
 -0.50476E-01
 -0.50706E-01
 -0.50447E-01
 -0.48224E-01
 -0.45753E-01
 -0.41141E-01
 -0.36575E-01
 -0.31113E-01
 -0.25495E-01
 -0.20985E-01
 -0.15740E-01
 -0.12807E-01
 -0.16051E-01
 -0.10049E-01
 -0.46175E-01
 -0.34685E-01
 -0.80683E-02
 -0.11941E-01
 -0.80803E-02
 -0.91474E-02
 -0.70517E-02
 -0.78178E-02
 -0.72941E-02
 -0.55139E-02
 -0.74140E-02
 -0.87793E-02
 -0.99566E-02
 -0.55414E-02
 -0.91157E-02
 -0.19768E-02
 -0.12772E-02
  0.43029E-02
  0.54054E-02
  0.72184E-02
  0.73028E-02
 -0.11075E-01
 -0.11902E-01
 -0.16146E-01
 -0.12377E-01
 -0.11718E-01
  0.65895E-02
  0.54957E-02
 -0.11796E-01
 -0.94596E-02
 -0.79648E-02
 -0.52925E-02
 -0.67440E-02
 -0.37281E-02
 -0.12697E-02
 -0.94921E-03
 -0.36456E-02
 -0.17927E-02
 -0.51453E-02
 -0.40178E-02
 -0.10260E-01
 -0.85016E-02
 -0.79448E-02
  0.47008E-02
  0.31004E-02
 -0.28351E-02
 -0.65591E-02
 -0.12399E-01
 -0.95367E-02
 -0.14935E-01
 -0.10581E-01
  0.14386E-02
 -0.14431E-01
 -0.95211E-02
 -0.11651E-01
 -0.74639E-02
 -0.55224E-02
 -0.43191E-02
 -0.55613E-02
 -0.45981E-02
  0.28303E-02
  0.37212E-02
  0.13260E-02
 -0.33590E-02
 -0.42676E-02
 -0.18852E-02
 -0.30206E-01
 -0.29885E-01
 -0.25934E-01
 -0.23334E-01
  0.10687E-02
 -0.12450E-01
 -0.30977E-03
 -0.11355E-02
 -0.16198E-02
 -0.28173E-02
 -0.24609E-02
 -0.38584E-02
 -0.20146E-01
 -0.29264E-02
 -0.16164E-01
 -0.43600E-02
 -0.29638E-02
 -0.43432E-02
 -0.26084E-02
 -0.40053E-02
 -0.20420E-02
 -0.32087E-02
 -0.11735E-02
 -0.21260E-02
 -0.10435E-03
 -0.75827E-03
  0.11679E-02
  0.69321E-03
 -0.13461E-02
  0.33949E-03
 -0.18164E-02
  0.79381E-04
  0.20198E-02
  0.20984E-02
  0.37854E-02
  0.42394E-02
  0.57063E-02
  0.65455E-02
 -0.22292E-02
  0.77574E-02
  0.67762E-02
  0.85841E-02
 -0.13732E-01
  0.89688E-02
 -0.41585E-02
 -0.47796E-02
 -0.20685E-01
 -0.17124E-01
  0.48410E-02
 -0.18180E-02
  0.22432E-03
 -0.99418E-03
  0.15596E-02
 -0.13340E-02
  0.65866E-04
 -0.82145E-02
 -0.87248E-02
 -0.39550E-01
 -0.19030E-01
 -0.67271E-02
 -0.76245E-02
  0.43937E-03
  0.17901E-02
  0.16241E-02
  0.74777E-02
  0.91051E-02
 -0.16471E-01
 -0.12729E-01
 -0.13228E-01
 -0.91610E-02
 -0.90485E-02
  0.53378E-02
 -0.96247E-02
 -0.10527E-01
 -0.85051E-02
 -0.11077E-01
 -0.92399E-02
 -0.11407E-01
 -0.10098E-01
 -0.12317E-01
 -0.12264E-01
  0.21129E-02
  0.88203E-03
  0.31943E-02
 -0.28635E-02
 -0.56530E-02
 -0.51862E-02
 -0.12777E-01
 -0.12579E-01
  0.79218E-02
  0.93028E-02
  0.10652E-01
 -0.47702E-01
 -0.12918E-01
  0.34224E-02
 -0.62118E-02
 -0.23525E-02
 -0.19643E-02
  0.42065E-02
  0.10561E-01
  0.58517E-02
 -0.57008E-02
  0.28366E-03
  0.60719E-03
 -0.13023E-01
 -0.12756E-01
 -0.13374E-01
 -0.18084E-01
 -0.13630E-01
 -0.20764E-01
  0.81886E-02
  0.42073E-02
  0.48174E-02
  0.47670E-02
 -0.16692E-01
 -0.22045E-01
  0.12087E-01
 -0.12384E-01
 -0.12578E-01
 -0.12940E-01
 -0.12769E-01
  0.25356E-02
  0.24735E-02
  0.68849E-02
 -0.74755E-02
 -0.83313E-02
 -0.13093E-01
 -0.86542E-02
 -0.11625E-01
 -0.33363E-02
  0.46111E-02
  0.38823E-02
 -0.13555E-01
 -0.14334E-01
  0.11639E-01
  0.52291E-02
 -0.53794E-02
 -0.62131E-02
 -0.90778E-02
 -0.70114E-02
 -0.35581E-02
 -0.38040E-02
 -0.42642E-03
 -0.71761E-04
  0.31675E-02
  0.44322E-02
  0.72757E-02
  0.98415E-02
  0.11573E-01
  0.15049E-01
  0.15322E-01
  0.19148E-01
  0.18071E-01
  0.21776E-01
  0.19984E-01
  0.23013E-01
  0.21099E-01
 -0.97620E-02
  0.25414E-01
  0.25713E-01
  0.28548E-01
  0.18449E-01
  0.19424E-01
  0.42495E-02
  0.38918E-02
 -0.36157E-01
  0.11077E-02
  0.32986E-02
  0.29824E-02
  0.45608E-02
  0.42232E-02
  0.51803E-02
  0.48094E-02
  0.53371E-02
  0.55127E-02
  0.55779E-02
  0.54627E-02
  0.55114E-02
  0.36870E-02
  0.43476E-02
  0.31682E-02
  0.39434E-02
  0.44881E-02
  0.40918E-02
  0.28059E-02
  0.43178E-02
  0.39529E-02
  0.52228E-02
  0.52847E-02
  0.37010E-02
  0.35683E-02
 -0.10365E-01
 -0.59200E-02
 -0.43313E-02
 -0.50522E-02
 -0.33908E-02
 -0.31127E-02
 -0.15970E-02
 -0.23753E-02
 -0.64821E-03
 -0.21223E-02
 -0.35869E-03
 -0.24767E-02
 -0.34017E-03
 -0.61227E-03
 -0.24200E-02
  0.33048E-02
  0.31395E-02
  0.54211E-02
  0.52523E-02
 -0.36236E-02
  0.72264E-02
  0.61034E-02
 -0.35133E-02
 -0.41618E-02
 -0.42453E-02
  0.15198E-02
 -0.99540E-02
  0.48825E-02
  0.50990E-02
 -0.23839E-01
 -0.10447E-01
 -0.13399E-01
  0.54551E-02
  0.50547E-02
  0.24397E-02
 -0.12914E-01
 -0.13146E-01
 -0.12587E-01
 -0.32898E-01
  0.19351E-02
  0.21524E-03
  0.10287E-01
  0.11199E-01
 -0.17294E-01
 -0.20507E-01
  0.19810E-01
  0.62544E-03
 -0.12633E-02
  0.21586E-01
  0.19793E-01
  0.13465E-01
  0.27745E-01
  0.30595E-01
 -0.11572E-01
 -0.12255E-01
  0.38009E-02
  0.51588E-02
  0.51045E-02
  0.50252E-02
  0.49679E-02
  0.48000E-02
  0.47966E-02
  0.54184E-02
  0.56953E-02
 -0.27088E-03
 -0.45156E-01
  0.43448E-02
  0.45496E-02
  0.48508E-02
  0.47908E-02
 -0.14143E-01
 -0.15197E-01
 -0.46000E-02
 -0.38545E-02
 -0.22831E-02
  0.48925E-02
  0.65114E-02
  0.61515E-02
  0.35088E-02
  0.42601E-02
  0.71837E-02
  0.50297E-02
  0.77748E-02
  0.54340E-02
  0.17200E-02
  0.18896E-02
  0.47438E-02
  0.60391E-03
  0.31152E-02
 -0.17117E-02
 -0.12055E-01
 -0.15169E-01
  0.30476E-02
  0.22435E-02
  0.10404E-02
 -0.47752E-02
  0.90350E-02
 -0.13323E-01
  0.23876E-02
 -0.11875E-02
 -0.70320E-02
 -0.12683E-01
  0.48225E-02
 -0.38085E-02
 -0.13268E-01
 -0.16068E-01
 -0.13662E-01
 -0.15691E-01
 -0.13213E-01
 -0.14350E-01
 -0.12426E-01
 -0.13240E-01
 -0.11739E-01
 -0.12937E-01
 -0.11010E-01
 -0.12364E-01
 -0.18247E-02
  0.52074E-02
 -0.99143E-02
 -0.10829E-01
 -0.81080E-02
 -0.91966E-02
 -0.56747E-02
 -0.72277E-02
 -0.10853E-01
 -0.97089E-02
 -0.13234E-01
 -0.13492E-01
 -0.17216E-01
 -0.19239E-01
 -0.22951E-01
 -0.14630E-01
 -0.13360E-01
 -0.11955E-01
 -0.12856E-01
 -0.65225E-02
  0.66218E-02
 -0.38294E-04
  0.63664E-02
  0.54627E-02
  0.75533E-02
 -0.13176E-01
 -0.13430E-01
 -0.17685E-01
 -0.26348E-01
 -0.29283E-01
  0.48849E-02
 -0.10802E-01
 -0.10881E-01
 -0.30936E-02
 -0.25380E-01
 -0.30636E-01
 -0.26598E-01
 -0.30547E-01
 -0.55977E-02
 -0.12189E-03
  0.57960E-02
  0.28904E-01
  0.31472E-01
  0.26694E-01
  0.15112E-01
  0.98712E-03
  0.88667E-03
 -0.33306E-02
 -0.35523E-01
 -0.12569E-01
  0.55783E-02
  0.21384E-02
  0.31700E-02
 -0.27025E-01
 -0.21465E-01
 -0.27426E-01
  0.42963E-02
 -0.14893E-01
 -0.16349E-01
  0.12237E-01
  0.40294E-02
  0.32612E-02
 -0.16947E-01
 -0.15891E-01
 -0.19975E-01
 -0.13122E-01
 -0.16441E-01
 -0.90907E-02
 -0.73374E-02
 -0.34619E-02
 -0.44672E-02
  0.31255E-03
 -0.38155E-03
  0.37593E-02
  0.31336E-02
  0.68940E-02
  0.58723E-02
  0.99371E-02
  0.96385E-02
  0.13250E-01
  0.13539E-01
  0.16665E-01
  0.17530E-01
  0.20020E-01
  0.21702E-01
  0.18734E-01
  0.89262E-02
  0.22824E-01
  0.24903E-01
  0.10246E-01
  0.24939E-01
  0.27079E-01
  0.20074E-01
  0.41686E-02
  0.28118E-01
  0.29384E-01
  0.27904E-01
  0.23202E-01
  0.31298E-01
  0.31462E-01
  0.21545E-02
  0.24683E-01
  0.23209E-01
  0.34482E-01
 -0.15380E-01
  0.99594E-02
  0.10784E-01
 -0.72721E-02
 -0.71571E-02
 -0.57064E-02
 -0.10369E-01
 -0.35789E-02
 -0.94195E-02
 -0.10265E-01
  0.34184E-01
 -0.26253E-02
  0.32991E-01
  0.12029E-01
  0.42875E-02
  0.47279E-02
  0.51800E-02
  0.52366E-02
 -0.75258E-02
 -0.12415E-01
  0.29398E-01
 -0.75642E-02
  0.30568E-01
  0.48921E-02
 -0.28548E-02
 -0.15448E-01
 -0.12331E-01
 -0.12240E-01
 -0.13795E-01
  0.37370E-02
  0.30792E-02
  0.29021E-02
  0.50185E-02
  0.46379E-02
  0.49711E-02
  0.43150E-02
  0.38228E-02
  0.37190E-02
  0.30221E-02
  0.30986E-02
  0.22406E-02
  0.24697E-02
  0.15016E-02
  0.18508E-02
  0.27393E-02
  0.22350E-02
  0.13308E-02
  0.18222E-02
  0.99013E-03
  0.15860E-02
  0.30565E-02
  0.94803E-03
  0.15862E-02
  0.21989E-02
  0.22359E-02
  0.17862E-02
 -0.24763E-02
 -0.11970E-01
 -0.14341E-01
 -0.12934E-01
 -0.14425E-01
 -0.12672E-01
 -0.14956E-01
 -0.13134E-01
 -0.10719E-01
 -0.10367E-01
 -0.97923E-02
 -0.64218E-02
 -0.51226E-02
 -0.31931E-03
  0.24094E-02
 -0.19335E-02
  0.40958E-02
  0.26659E-02
 -0.13261E-01
  0.31224E-01
  0.21247E-01
  0.60122E-02
 -0.10096E-01
  0.17828E-01
  0.18202E-01
 -0.13606E-01
  0.84723E-02
  0.88030E-02
 -0.38284E-02
 -0.57036E-03
  0.11504E-01
  0.56328E-02
  0.46912E-02
  0.43666E-02
 -0.28267E-01
  0.29222E-01
 -0.29539E-02
 -0.19437E-02
 -0.24613E-02
 -0.56055E-03
 -0.92544E-03
  0.57102E-03
  0.57292E-02
 -0.59105E-02
  0.40376E-02
  0.45540E-02
  0.24251E-02
  0.64626E-02
  0.17424E-02
 -0.14157E-02
  0.59217E-02
  0.65043E-02
 -0.47226E-02
  0.76620E-02
  0.17658E-01
 -0.10369E-01
  0.88609E-02
  0.13302E-01
  0.21588E-01
  0.73904E-02
 -0.16571E-01
 -0.26587E-01
 -0.29077E-01
 -0.33669E-01
  0.40800E-02
 -0.11429E-01
 -0.11259E-01
 -0.10725E-01
 -0.11252E-01
  0.54413E-02
 -0.31328E-01
 -0.36115E-01
 -0.50294E-02
 -0.15945E-01
 -0.14859E-01
 -0.18256E-01
  0.24339E-01
  0.23214E-01
  0.21873E-01
  0.22196E-01
  0.20693E-01
 -0.12004E-01
 -0.81393E-02
  0.22425E-02
  0.14576E-02
  0.28198E-02
  0.28494E-02
 -0.45894E-02
 -0.16345E-01
 -0.14412E-01
  0.44502E-02
  0.36103E-02
 -0.24782E-02
  0.60396E-02
  0.35781E-01
  0.37777E-01
 -0.10775E-01
 -0.10386E-01
  0.33102E-03
  0.57264E-03
  0.28678E-01
 -0.22291E-01
 -0.70354E-02
 -0.11905E-01
 -0.11573E-01
 -0.12008E-01
  0.10385E-01
  0.30135E-02
  0.10584E-01
 -0.10219E-01
 -0.15206E-03
 -0.13741E-01
  0.25769E-02
 -0.87384E-02
 -0.13802E-01
  0.20109E-02
 -0.38636E-02
  0.33406E-02
 -0.47141E-02
 -0.29064E-02
 -0.53997E-02
  0.50105E-02
 -0.25165E-01
  0.60596E-02
  0.57643E-02
  0.32334E-03
  0.50851E-02
 -0.77921E-02
  0.56611E-02
 -0.17071E-02
 -0.59686E-03
  0.10821E-02
 -0.13559E-01
 -0.19701E-02
  0.33817E-02
 -0.14079E-01
 -0.12271E-01
 -0.12129E-01
 -0.12149E-01
 -0.17786E-01
 -0.18223E-01
 -0.13588E-01
  0.39960E-02
  0.55432E-02
  0.49183E-02
  0.47016E-02
  0.45241E-02
  0.42811E-02
  0.47260E-02
 -0.12653E-01
 -0.24612E-01
  0.34446E-02
  0.37031E-02
 -0.21441E-01
 -0.24081E-01
 -0.42898E-03
  0.33461E-02
  0.33902E-02
  0.26979E-02
  0.22557E-02
 -0.19500E-01
 -0.17329E-02
  0.24410E-02
 -0.11306E-01
 -0.11504E-01
 -0.11754E-01
 -0.35011E-01
 -0.32148E-01
 -0.36892E-01
 -0.43773E-01
 -0.31834E-01
  0.38722E-01
 -0.45171E-02
  0.31228E-02
  0.23143E-01
  0.22419E-01
 -0.74350E-02
  0.29359E-02
  0.29244E-01
  0.29264E-01
  0.17304E-02
  0.41270E-02
  0.31952E-02
  0.62533E-02
  0.51204E-02
  0.69280E-02
  0.77091E-02
  0.64142E-02
  0.64687E-02
 -0.11377E-01
 -0.25179E-02
  0.71416E-03
 -0.71045E-04
 -0.12323E-01
  0.19680E-01
  0.18545E-01
  0.17049E-01
  0.16025E-01
  0.19681E-01
 -0.18952E-02
 -0.38814E-02
  0.11020E-01
 -0.24284E-02
 -0.84420E-03
 -0.11890E-01
 -0.11972E-01
 -0.12949E-01
 -0.13201E-01
 -0.11035E-01
  0.46444E-02
  0.42916E-02
  0.41002E-02
  0.40196E-02
  0.41066E-02
  0.39706E-02
 -0.51667E-02
 -0.17116E-01
 -0.16514E-01
 -0.17426E-01
  0.13689E-01
  0.13098E-01
 -0.10626E-01
 -0.11172E-01
 -0.95400E-02
 -0.10191E-01
 -0.61829E-02
 -0.15307E-02
  0.68893E-02
 -0.78824E-02
  0.19495E-01
  0.16782E-01
  0.25042E-01
  0.22210E-01
  0.15139E-01
  0.28111E-01
  0.24723E-03
  0.83726E-02
  0.56371E-02
 -0.12618E-01
 -0.13241E-01
 -0.22142E-02
 -0.25354E-01
 -0.20442E-01
 -0.37887E-01
 -0.33670E-01
 -0.38214E-01
  0.25581E-01
  0.11406E-01
  0.16402E-01
  0.16742E-01
  0.18289E-01
 -0.64968E-02
 -0.10150E-01
 -0.55198E-02
  0.52413E-02
  0.59372E-02
  0.44654E-02
  0.47977E-02
  0.61120E-02
 -0.33868E-02
 -0.38360E-02
 -0.35967E-02
 -0.27575E-02
 -0.30741E-02
  0.12686E-01
  0.13364E-01
 -0.10962E-01
 -0.17447E-01
  0.44569E-02
  0.16757E-02
  0.34502E-03
  0.15069E-02
 -0.46788E-02
  0.42793E-02
  0.24519E-02
  0.34375E-02
  0.10374E-01
  0.96846E-02
 -0.23275E-01
 -0.22075E-01
 -0.22831E-01
 -0.20334E-01
  0.11966E-01
 -0.21645E-02
  0.25228E-03
  0.15417E-03
  0.29170E-02
 -0.13567E-01
 -0.15636E-01
 -0.14097E-01
 -0.15694E-01
 -0.15186E-01
 -0.14683E-01
 -0.50209E-02
 -0.19126E-01
 -0.40594E-03
  0.35649E-02
  0.56500E-02
 -0.12654E-01
  0.88997E-02
  0.82415E-02
 -0.14274E-01
 -0.13763E-01
 -0.14089E-01
 -0.12970E-01
 -0.23617E-03
  0.35131E-02
 -0.11729E-01
  0.38728E-02
  0.38618E-02
  0.42030E-02
  0.39031E-02
  0.65015E-02
  0.20408E-02
  0.28438E-01
  0.90318E-02
  0.82134E-02
  0.60292E-02
 -0.47411E-02
  0.16338E-01
  0.22818E-01
  0.26800E-01
  0.50120E-02
 -0.12997E-01
 -0.13139E-01
 -0.13576E-01
  0.34011E-01
  0.33964E-02
  0.15595E-01
  0.25369E-02
  0.25182E-01
 -0.11988E-01
  0.24786E-01
  0.25790E-01
 -0.28934E-01
 -0.72168E-02
 -0.11774E-01
  0.13942E-01
 -0.18259E-01
 -0.19092E-01
 -0.17828E-01
 -0.14949E-01
 -0.11046E-01
  0.14531E-02
  0.16432E-02
  0.28340E-01
  0.24408E-01
  0.32760E-01
 -0.21135E-01
 -0.17100E-01
 -0.20123E-01
 -0.29663E-01
  0.73250E-02
 -0.23464E-02
  0.71410E-03
 -0.13562E-01
 -0.36348E-01
 -0.38272E-01
 -0.43082E-01
 -0.34788E-01
  0.84470E-02
  0.62995E-02
 -0.73659E-03
  0.75001E-03
  0.22386E-02
  0.16500E-01
  0.18177E-01
  0.19853E-01
  0.15148E-01
 -0.99346E-02
 -0.88652E-02
 -0.19338E-01
 -0.20132E-01
 -0.17882E-01
  0.13690E-01
  0.18728E-01
  0.23293E-01
  0.33467E-01
  0.12944E-01
  0.22516E-02
 -0.15476E-02
 -0.13540E-01
 -0.13765E-01
  0.43462E-02
  0.39580E-02
  0.10026E-01
 -0.11510E-01
  0.29098E-02
 -0.92699E-02
 -0.10639E-01
  0.27490E-02
  0.30325E-02
  0.33231E-02
  0.35394E-02
  0.37009E-02
 -0.14444E-01
 -0.13943E-01
 -0.23395E-01
 -0.28688E-01
 -0.11904E-01
 -0.15731E-01
 -0.17415E-03
  0.40461E-02
 -0.89621E-02
 -0.73732E-02
  0.36196E-02
  0.38032E-01
  0.35254E-01
  0.38547E-01
  0.35827E-01
  0.38153E-01
  0.39717E-01
  0.30853E-02
  0.39532E-02
 -0.37888E-02
 -0.10042E-01
 -0.10472E-01
 -0.11988E-01
 -0.94259E-02
 -0.89765E-02
 -0.12053E-01
 -0.23577E-01
 -0.58522E-02
 -0.32387E-02
 -0.19603E-01
  0.89483E-02
 -0.15894E-01
 -0.25022E-01
 -0.34742E-01
 -0.11892E-01
  0.65391E-02
  0.40904E-01
 -0.35273E-01
 -0.14601E-01
 -0.11566E-01
 -0.14117E-01
 -0.10864E-01
 -0.11627E-01
 -0.15909E-01
 -0.34128E-01
 -0.99599E-03
 -0.73067E-02
 -0.81318E-02
 -0.14256E-01
  0.15158E-01
  0.54479E-02
 -0.65268E-02
 -0.86520E-02
 -0.48749E-02
 -0.48676E-02
 -0.73625E-02
 -0.59717E-02
 -0.13980E-01
 -0.13632E-01
 -0.13952E-01
 -0.34150E-02
 -0.37099E-02
 -0.17945E-01
 -0.11248E-02
  0.10543E-04
 -0.27595E-03
 -0.13190E-01
 -0.12048E-01
 -0.74372E-03
 -0.72785E-02
  0.27763E-01
  0.27392E-01
 -0.31985E-01
  0.24094E-01
  0.23759E-01
  0.25608E-01
 -0.15956E-01
 -0.15789E-01
 -0.14009E-01
  0.64721E-02
 -0.40767E-02
 -0.11772E-01
 -0.14099E-01
  0.38637E-02
  0.39305E-02
  0.38492E-02
  0.38783E-02
 -0.11249E-01
  0.15300E-02
 -0.11194E-01
 -0.11674E-01
  0.32047E-01
 -0.13328E-01
  0.82804E-02
  0.31199E-01
  0.23738E-02
 -0.85685E-02
 -0.17821E-01
 -0.44605E-03
 -0.91607E-02
 -0.18333E-01
 -0.17874E-01
 -0.26975E-01
 -0.51043E-03
 -0.29151E-01
 -0.25432E-01
 -0.34191E-01
 -0.98954E-02
 -0.27539E-01
  0.40922E-02
 -0.32392E-03
 -0.14273E-01
 -0.14160E-01
 -0.23633E-01
 -0.18854E-01
 -0.17759E-01
 -0.20359E-01
  0.11206E-02
  0.34485E-03
 -0.16069E-01
  0.84924E-03
 -0.23522E-03
 -0.80753E-03
  0.25172E-03
  0.29656E-02
  0.18125E-02
  0.59123E-03
  0.39788E-02
  0.40502E-02
  0.54618E-02
  0.44822E-02
  0.29345E-02
  0.41620E-01
  0.40849E-01
  0.21103E-01
  0.23124E-01
  0.57380E-02
  0.50302E-02
  0.32508E-02
  0.40099E-02
  0.19741E-02
  0.10674E-02
 -0.56270E-03
 -0.14913E-02
 -0.37300E-02
 -0.28921E-02
 -0.47578E-02
 -0.69581E-02
 -0.53579E-02
  0.56206E-02
  0.38828E-03
  0.27233E-02
  0.56044E-02
  0.75735E-02
  0.10367E-01
  0.11375E-01
  0.13240E-01
  0.13652E-01
  0.15597E-01
 -0.12316E-01
 -0.12756E-01
  0.23518E-01
 -0.13984E-01
 -0.11773E-01
 -0.88361E-03
  0.21799E-02
 -0.14234E-01
  0.14240E-01
 -0.12766E-01
 -0.84209E-02
  0.24873E-01
  0.25786E-01
  0.26919E-01
  0.68666E-02
 -0.12180E-01
  0.19553E-01
 -0.11568E-01
  0.40758E-02
  0.39746E-02
  0.38775E-02
  0.37428E-02
 -0.19715E-01
 -0.10171E-03
  0.20524E-01
  0.21940E-01
  0.21952E-01
  0.79504E-02
  0.74434E-02
  0.63607E-02
  0.68431E-02
  0.25887E-02
 -0.29158E-01
  0.88222E-02
  0.66212E-02
 -0.49494E-01
  0.15335E-02
 -0.19383E-02
 -0.14118E-02
 -0.62526E-02
 -0.50316E-02
  0.29946E-02
  0.10783E-02
  0.14162E-01
 -0.14321E-01
 -0.11944E-01
  0.60478E-02
  0.35410E-02
 -0.13167E-01
  0.43424E-02
  0.40796E-02