# vtk DataFile Version 2.0
Unstructured Grid UFVM-ECOMOD
ASCII
DATASET UNSTRUCTURED_GRID
 POINTS         1420  float
  0.00000E+00  0.00000E+00  0.00000E+00
  0.40000E+01  0.00000E+00  0.00000E+00
  0.40000E+01  0.20000E+01  0.00000E+00
  0.00000E+00  0.20000E+01  0.00000E+00
  0.10433E+01  0.10046E+01  0.00000E+00
  0.10392E+01  0.96756E+00  0.00000E+00
  0.10272E+01  0.93281E+00  0.00000E+00
  0.10079E+01  0.90258E+00  0.00000E+00
  0.98260E+00  0.87876E+00  0.00000E+00
  0.95293E+00  0.86285E+00  0.00000E+00
  0.92072E+00  0.85585E+00  0.00000E+00
  0.88798E+00  0.85820E+00  0.00000E+00
  0.85679E+00  0.86974E+00  0.00000E+00
  0.82910E+00  0.88977E+00  0.00000E+00
  0.80665E+00  0.91701E+00  0.00000E+00
  0.79085E+00  0.94975E+00  0.00000E+00
  0.78270E+00  0.98595E+00  0.00000E+00
  0.78270E+00  0.10233E+01  0.00000E+00
  0.79085E+00  0.10595E+01  0.00000E+00
  0.80665E+00  0.10922E+01  0.00000E+00
  0.82910E+00  0.11195E+01  0.00000E+00
  0.85679E+00  0.11395E+01  0.00000E+00
  0.88798E+00  0.11511E+01  0.00000E+00
  0.92072E+00  0.11534E+01  0.00000E+00
  0.95293E+00  0.11464E+01  0.00000E+00
  0.98260E+00  0.11305E+01  0.00000E+00
  0.10079E+01  0.11067E+01  0.00000E+00
  0.10272E+01  0.10764E+01  0.00000E+00
  0.10392E+01  0.10417E+01  0.00000E+00
  0.10000E+00  0.00000E+00  0.00000E+00
  0.20000E+00  0.00000E+00  0.00000E+00
  0.30000E+00  0.00000E+00  0.00000E+00
  0.40000E+00  0.00000E+00  0.00000E+00
  0.50000E+00  0.00000E+00  0.00000E+00
  0.60000E+00  0.00000E+00  0.00000E+00
  0.70000E+00  0.00000E+00  0.00000E+00
  0.80000E+00  0.00000E+00  0.00000E+00
  0.90000E+00  0.00000E+00  0.00000E+00
  0.10000E+01  0.00000E+00  0.00000E+00
  0.11000E+01  0.00000E+00  0.00000E+00
  0.12000E+01  0.00000E+00  0.00000E+00
  0.13000E+01  0.00000E+00  0.00000E+00
  0.14000E+01  0.00000E+00  0.00000E+00
  0.15000E+01  0.00000E+00  0.00000E+00
  0.16000E+01  0.00000E+00  0.00000E+00
  0.17000E+01  0.00000E+00  0.00000E+00
  0.18000E+01  0.00000E+00  0.00000E+00
  0.19000E+01  0.00000E+00  0.00000E+00
  0.20000E+01  0.00000E+00  0.00000E+00
  0.21000E+01  0.00000E+00  0.00000E+00
  0.22000E+01  0.00000E+00  0.00000E+00
  0.23000E+01  0.00000E+00  0.00000E+00
  0.24000E+01  0.00000E+00  0.00000E+00
  0.25000E+01  0.00000E+00  0.00000E+00
  0.26000E+01  0.00000E+00  0.00000E+00
  0.27000E+01  0.00000E+00  0.00000E+00
  0.28000E+01  0.00000E+00  0.00000E+00
  0.29000E+01  0.00000E+00  0.00000E+00
  0.30000E+01  0.00000E+00  0.00000E+00
  0.31000E+01  0.00000E+00  0.00000E+00
  0.32000E+01  0.00000E+00  0.00000E+00
  0.33000E+01  0.00000E+00  0.00000E+00
  0.34000E+01  0.00000E+00  0.00000E+00
  0.35000E+01  0.00000E+00  0.00000E+00
  0.36000E+01  0.00000E+00  0.00000E+00
  0.37000E+01  0.00000E+00  0.00000E+00
  0.38000E+01  0.00000E+00  0.00000E+00
  0.39000E+01  0.00000E+00  0.00000E+00
  0.40000E+01  0.10000E+00  0.00000E+00
  0.40000E+01  0.20000E+00  0.00000E+00
  0.40000E+01  0.30000E+00  0.00000E+00
  0.40000E+01  0.40000E+00  0.00000E+00
  0.40000E+01  0.50000E+00  0.00000E+00
  0.40000E+01  0.60000E+00  0.00000E+00
  0.40000E+01  0.70000E+00  0.00000E+00
  0.40000E+01  0.80000E+00  0.00000E+00
  0.40000E+01  0.90000E+00  0.00000E+00
  0.40000E+01  0.10000E+01  0.00000E+00
  0.40000E+01  0.11000E+01  0.00000E+00
  0.40000E+01  0.12000E+01  0.00000E+00
  0.40000E+01  0.13000E+01  0.00000E+00
  0.40000E+01  0.14000E+01  0.00000E+00
  0.40000E+01  0.15000E+01  0.00000E+00
  0.40000E+01  0.16000E+01  0.00000E+00
  0.40000E+01  0.17000E+01  0.00000E+00
  0.40000E+01  0.18000E+01  0.00000E+00
  0.40000E+01  0.19000E+01  0.00000E+00
  0.39000E+01  0.20000E+01  0.00000E+00
  0.38000E+01  0.20000E+01  0.00000E+00
  0.37000E+01  0.20000E+01  0.00000E+00
  0.36000E+01  0.20000E+01  0.00000E+00
  0.35000E+01  0.20000E+01  0.00000E+00
  0.34000E+01  0.20000E+01  0.00000E+00
  0.33000E+01  0.20000E+01  0.00000E+00
  0.32000E+01  0.20000E+01  0.00000E+00
  0.31000E+01  0.20000E+01  0.00000E+00
  0.30000E+01  0.20000E+01  0.00000E+00
  0.29000E+01  0.20000E+01  0.00000E+00
  0.28000E+01  0.20000E+01  0.00000E+00
  0.27000E+01  0.20000E+01  0.00000E+00
  0.26000E+01  0.20000E+01  0.00000E+00
  0.25000E+01  0.20000E+01  0.00000E+00
  0.24000E+01  0.20000E+01  0.00000E+00
  0.23000E+01  0.20000E+01  0.00000E+00
  0.22000E+01  0.20000E+01  0.00000E+00
  0.21000E+01  0.20000E+01  0.00000E+00
  0.20000E+01  0.20000E+01  0.00000E+00
  0.19000E+01  0.20000E+01  0.00000E+00
  0.18000E+01  0.20000E+01  0.00000E+00
  0.17000E+01  0.20000E+01  0.00000E+00
  0.16000E+01  0.20000E+01  0.00000E+00
  0.15000E+01  0.20000E+01  0.00000E+00
  0.14000E+01  0.20000E+01  0.00000E+00
  0.13000E+01  0.20000E+01  0.00000E+00
  0.12000E+01  0.20000E+01  0.00000E+00
  0.11000E+01  0.20000E+01  0.00000E+00
  0.10000E+01  0.20000E+01  0.00000E+00
  0.90000E+00  0.20000E+01  0.00000E+00
  0.80000E+00  0.20000E+01  0.00000E+00
  0.70000E+00  0.20000E+01  0.00000E+00
  0.60000E+00  0.20000E+01  0.00000E+00
  0.50000E+00  0.20000E+01  0.00000E+00
  0.40000E+00  0.20000E+01  0.00000E+00
  0.30000E+00  0.20000E+01  0.00000E+00
  0.20000E+00  0.20000E+01  0.00000E+00
  0.10000E+00  0.20000E+01  0.00000E+00
  0.00000E+00  0.19000E+01  0.00000E+00
  0.00000E+00  0.18000E+01  0.00000E+00
  0.00000E+00  0.17000E+01  0.00000E+00
  0.00000E+00  0.16000E+01  0.00000E+00
  0.00000E+00  0.15000E+01  0.00000E+00
  0.00000E+00  0.14000E+01  0.00000E+00
  0.00000E+00  0.13000E+01  0.00000E+00
  0.00000E+00  0.12000E+01  0.00000E+00
  0.00000E+00  0.11000E+01  0.00000E+00
  0.00000E+00  0.10000E+01  0.00000E+00
  0.00000E+00  0.90000E+00  0.00000E+00
  0.00000E+00  0.80000E+00  0.00000E+00
  0.00000E+00  0.70000E+00  0.00000E+00
  0.00000E+00  0.60000E+00  0.00000E+00
  0.00000E+00  0.50000E+00  0.00000E+00
  0.00000E+00  0.40000E+00  0.00000E+00
  0.00000E+00  0.30000E+00  0.00000E+00
  0.00000E+00  0.20000E+00  0.00000E+00
  0.00000E+00  0.10000E+00  0.00000E+00
  0.19476E+01  0.85910E-01  0.00000E+00
  0.19458E+01  0.19136E+01  0.00000E+00
  0.29500E+01  0.19134E+01  0.00000E+00
  0.24474E+01  0.19097E+01  0.00000E+00
  0.27468E+01  0.83590E-01  0.00000E+00
  0.23486E+01  0.86060E-01  0.00000E+00
  0.39202E+01  0.95555E+00  0.00000E+00
  0.31524E+01  0.79860E-01  0.00000E+00
  0.15434E+01  0.81060E-01  0.00000E+00
  0.15561E+01  0.19190E+01  0.00000E+00
  0.33401E+01  0.19193E+01  0.00000E+00
  0.55000E+00  0.86600E-01  0.00000E+00
  0.54321E+00  0.18970E+01  0.00000E+00
  0.12576E+01  0.94170E-01  0.00000E+00
  0.12595E+01  0.19031E+01  0.00000E+00
  0.85260E-01  0.64891E+00  0.00000E+00
  0.39224E+01  0.13485E+01  0.00000E+00
  0.97850E-01  0.13456E+01  0.00000E+00
  0.85263E+00  0.92690E-01  0.00000E+00
  0.90232E+00  0.82868E+00  0.00000E+00
  0.39134E+01  0.55000E+00  0.00000E+00
  0.85000E+00  0.19134E+01  0.00000E+00
  0.90219E+00  0.11796E+01  0.00000E+00
  0.73730E-01  0.95061E+00  0.00000E+00
  0.34521E+01  0.83790E-01  0.00000E+00
  0.36500E+01  0.19134E+01  0.00000E+00
  0.86600E-01  0.16500E+01  0.00000E+00
  0.91260E-01  0.35125E+00  0.00000E+00
  0.39122E+01  0.16529E+01  0.00000E+00
  0.79770E-01  0.11522E+01  0.00000E+00
  0.10500E+01  0.19134E+01  0.00000E+00
  0.10436E+01  0.96320E-01  0.00000E+00
  0.34641E+00  0.19165E+01  0.00000E+00
  0.35117E+00  0.98680E-01  0.00000E+00
  0.17489E+01  0.19152E+01  0.00000E+00
  0.17477E+01  0.85050E-01  0.00000E+00
  0.21486E+01  0.19136E+01  0.00000E+00
  0.21494E+01  0.85650E-01  0.00000E+00
  0.25494E+01  0.86540E-01  0.00000E+00
  0.39145E+01  0.11516E+01  0.00000E+00
  0.36500E+01  0.85140E-01  0.00000E+00
  0.29463E+01  0.83430E-01  0.00000E+00
  0.31423E+01  0.19179E+01  0.00000E+00
  0.27493E+01  0.19098E+01  0.00000E+00
  0.39010E+01  0.34178E+00  0.00000E+00
  0.39152E+01  0.74696E+00  0.00000E+00
  0.90200E-01  0.18440E+01  0.00000E+00
  0.38461E+01  0.84370E-01  0.00000E+00
  0.93600E-01  0.14922E+00  0.00000E+00
  0.38527E+01  0.19149E+01  0.00000E+00
  0.93499E+00  0.11827E+01  0.00000E+00
  0.91733E+00  0.12123E+01  0.00000E+00
  0.95207E+00  0.12164E+01  0.00000E+00
  0.93165E+00  0.12471E+01  0.00000E+00
  0.97084E+00  0.12505E+01  0.00000E+00
  0.89437E+00  0.12359E+01  0.00000E+00
  0.94819E+00  0.12843E+01  0.00000E+00
  0.99065E+00  0.12884E+01  0.00000E+00
  0.96461E+00  0.13251E+01  0.00000E+00
  0.10110E+01  0.13286E+01  0.00000E+00
  0.10361E+01  0.12902E+01  0.00000E+00
  0.10582E+01  0.13315E+01  0.00000E+00
  0.10845E+01  0.12921E+01  0.00000E+00
  0.11074E+01  0.13353E+01  0.00000E+00
  0.11351E+01  0.12931E+01  0.00000E+00
  0.11593E+01  0.13388E+01  0.00000E+00
  0.11880E+01  0.12934E+01  0.00000E+00
  0.12152E+01  0.13430E+01  0.00000E+00
  0.12465E+01  0.12932E+01  0.00000E+00
  0.12751E+01  0.13479E+01  0.00000E+00
  0.13089E+01  0.12933E+01  0.00000E+00
  0.13392E+01  0.13518E+01  0.00000E+00
  0.13744E+01  0.12961E+01  0.00000E+00
  0.13422E+01  0.12370E+01  0.00000E+00
  0.14103E+01  0.12382E+01  0.00000E+00
  0.13774E+01  0.11782E+01  0.00000E+00
  0.14470E+01  0.11795E+01  0.00000E+00
  0.14109E+01  0.11172E+01  0.00000E+00
  0.14840E+01  0.11192E+01  0.00000E+00
  0.14492E+01  0.10568E+01  0.00000E+00
  0.15224E+01  0.10578E+01  0.00000E+00
  0.15578E+01  0.11226E+01  0.00000E+00
  0.15980E+01  0.10587E+01  0.00000E+00
  0.16344E+01  0.11264E+01  0.00000E+00
  0.16757E+01  0.10600E+01  0.00000E+00
  0.17140E+01  0.11301E+01  0.00000E+00
  0.17569E+01  0.10614E+01  0.00000E+00
  0.17947E+01  0.11329E+01  0.00000E+00
  0.18396E+01  0.10629E+01  0.00000E+00
  0.18817E+01  0.11349E+01  0.00000E+00
  0.19258E+01  0.10641E+01  0.00000E+00
  0.14867E+01  0.99385E+00  0.00000E+00
  0.19700E+01  0.11392E+01  0.00000E+00
  0.20134E+01  0.10659E+01  0.00000E+00
  0.20560E+01  0.11394E+01  0.00000E+00
  0.21025E+01  0.10675E+01  0.00000E+00
  0.21507E+01  0.11553E+01  0.00000E+00
  0.21942E+01  0.10716E+01  0.00000E+00
  0.22424E+01  0.11506E+01  0.00000E+00
  0.22867E+01  0.10733E+01  0.00000E+00
  0.17993E+01  0.99189E+00  0.00000E+00
  0.20571E+01  0.99091E+00  0.00000E+00
[...]
 POINT_DATA         1420
  
 SCALARS WL      float 1
 LOOKUP_TABLE default
  0.90583E-02
 -0.27162E-04
  0.43973E-02
  0.48813E-02
 -0.30914E-01
 -0.28404E-01
 -0.24757E-01
 -0.22488E-01
 -0.21685E-01
 -0.24568E-01
 -0.35094E-01
 -0.37502E-01
 -0.22900E-01
 -0.55301E-02
  0.11961E-01
  0.23006E-01
  0.28359E-01
  0.28649E-01
  0.22992E-01
  0.11546E-01
 -0.43742E-02
 -0.24918E-01
 -0.47557E-01
 -0.57443E-01
 -0.46562E-01
 -0.39249E-01
 -0.37322E-01
 -0.35935E-01
 -0.33372E-01
  0.88460E-02
  0.82323E-02
  0.72202E-02
  0.58554E-02
  0.42118E-02
  0.22932E-02
  0.21495E-03
 -0.17069E-02
 -0.34924E-02
 -0.48088E-02
 -0.54163E-02
 -0.52552E-02
 -0.44521E-02
 -0.33467E-02
 -0.21440E-02
 -0.10615E-02
 -0.14686E-03
  0.64852E-03
  0.13547E-02
  0.18959E-02
  0.22753E-02
  0.25634E-02
  0.28564E-02
  0.32913E-02
  0.39578E-02
  0.48331E-02
  0.57770E-02
  0.65079E-02
  0.67802E-02
  0.65109E-02
  0.57849E-02
  0.48051E-02
  0.37626E-02
  0.28075E-02
  0.20277E-02
  0.14563E-02
  0.99791E-03
  0.56675E-03
  0.17173E-03
  0.00000E+00
  0.00000E+00
  0.00000E+00
  0.00000E+00
  0.00000E+00
  0.00000E+00
  0.00000E+00
  0.00000E+00
  0.00000E+00
  0.00000E+00
  0.00000E+00
  0.00000E+00
  0.00000E+00
  0.00000E+00
  0.00000E+00
  0.00000E+00
  0.00000E+00
  0.00000E+00
  0.00000E+00
  0.63744E-02
  0.86675E-02
  0.94382E-02
  0.88942E-02
  0.73642E-02
  0.56009E-02
  0.41233E-02
  0.31124E-02
  0.25538E-02
  0.23295E-02
  0.23028E-02
  0.23816E-02
  0.24917E-02
  0.25968E-02
  0.26966E-02
  0.27739E-02
  0.28217E-02
  0.28230E-02
  0.27431E-02
  0.25368E-02
  0.22004E-02
  0.17239E-02
  0.12048E-02
  0.69394E-03
  0.26673E-03
  0.63379E-04
  0.14469E-03
  0.56167E-03
  0.12734E-02
  0.20502E-02
  0.28595E-02
  0.34915E-02
  0.39487E-02
  0.42612E-02
  0.44025E-02
  0.45462E-02
  0.46492E-02
  0.47443E-02
  0.48220E-02
  0.49827E-02
  0.52715E-02
  0.56975E-02
  0.62942E-02
  0.69752E-02
  0.77091E-02
  0.84710E-02
  0.91155E-02
  0.96411E-02
  0.10010E-01
  0.10182E-01
  0.10188E-01
  0.10069E-01
  0.98828E-02
  0.96754E-02
  0.94743E-02
  0.92913E-02
  0.91746E-02
  0.90985E-02
  0.17186E-02
  0.23249E-02
  0.23143E-02
  0.28130E-02
  0.61450E-02
  0.30603E-02
 -0.14155E-02
  0.53184E-02
 -0.16609E-02
  0.44232E-03
  0.47743E-02
  0.33945E-02
  0.44340E-02
 -0.48800E-02
  0.70539E-04
  0.99327E-02
  0.16244E-02
  0.81609E-02
 -0.27076E-02
 -0.31623E-01
 -0.48314E-03
  0.31088E-02
 -0.44520E-01
  0.10152E-01
  0.24374E-02
  0.92661E-02
  0.59266E-02
  0.92241E-02
  0.52577E-02
  0.94431E-02
  0.14754E-02
 -0.52451E-02
  0.46913E-02
  0.66219E-02
  0.14321E-02
  0.29053E-03
  0.27990E-02
  0.24820E-02
  0.43598E-02
 -0.37269E-03
  0.12467E-02
  0.67169E-02
  0.27605E-02
  0.24937E-02
  0.14515E-03
 -0.10747E-02
  0.50749E-02
  0.35921E-03
  0.89480E-02
  0.75544E-02
 -0.45806E-01
 -0.32379E-01
 -0.32740E-01
 -0.24527E-01
 -0.25524E-01
 -0.21650E-01
 -0.19181E-01
 -0.20217E-01
 -0.15214E-01
 -0.15967E-01
 -0.19866E-01
 -0.15487E-01
 -0.18080E-01
 -0.13723E-01
 -0.14836E-01
 -0.10927E-01
 -0.10864E-01
 -0.74377E-02
 -0.57077E-02
 -0.36144E-02
 -0.71205E-03
 -0.41189E-03
  0.19705E-02
  0.20589E-02
  0.26710E-02
 -0.28053E-02
 -0.38229E-02
 -0.14734E-01
 -0.13202E-01
 -0.23424E-01
 -0.18213E-01
 -0.12826E-01
 -0.16406E-01
 -0.15847E-01
 -0.18223E-01
 -0.19808E-01
 -0.20871E-01
 -0.20882E-01
 -0.19751E-01
 -0.16126E-01
 -0.14625E-01
 -0.23847E-01
 -0.96933E-02
 -0.94135E-02
 -0.56482E-02
 -0.64386E-02
 -0.29247E-02
 -0.56307E-02
 -0.27292E-02
 -0.61760E-02
 -0.17862E-01
 -0.86359E-02
 -0.27141E-02
 -0.65068E-02
 -0.25504E-02
 -0.55192E-02
 -0.18532E-02
 -0.37264E-02
 -0.12946E-02
 -0.26466E-02
 -0.15756E-02
 -0.27436E-02
 -0.27671E-02
 -0.38945E-02
 -0.46368E-02
 -0.54806E-02
 -0.60383E-02
 -0.99733E-02
 -0.27385E-02
 -0.58396E-02
  0.97734E-03
 -0.53172E-02
 -0.12056E-01
 -0.10313E-01
 -0.10372E-01
 -0.39984E-02
 -0.36882E-02
 -0.18340E-01
 -0.83452E-02
 -0.61711E-02
 -0.25321E-02
 -0.15477E-02
 -0.57505E-03
 -0.41253E-02
  0.28855E-04
 -0.35507E-01
  0.90497E-03
  0.21369E-02
  0.73498E-03
 -0.51087E-02
 -0.28997E-02
 -0.25027E-02
 -0.33173E-01
 -0.21393E-01
 -0.27931E-01
 -0.26566E-01
 -0.24143E-02
 -0.30062E-02
 -0.68865E-04
  0.26142E-02
  0.37931E-02
  0.35734E-02
  0.16451E-02
 -0.38251E-01
 -0.28618E-01
 -0.37521E-01
 -0.25783E-01
 -0.17700E-01
 -0.15383E-01
 -0.10149E-01
 -0.20048E-01
 -0.12693E-01
 -0.15126E-01
 -0.10492E-01
 -0.12012E-01
  0.34696E-02
  0.44693E-02
 -0.89563E-02
 -0.99254E-02
 -0.73790E-02
 -0.23954E-02
 -0.42683E-03
 -0.30703E-03
  0.16781E-02
  0.23729E-02
  0.36485E-02
  0.47314E-02
  0.52128E-02
  0.64881E-02
  0.64463E-02
  0.76810E-02
 -0.40864E-02
  0.81533E-02
  0.90852E-02
  0.64767E-02
  0.10086E-01
  0.10406E-01
  0.11744E-01
  0.11534E-01
  0.13097E-01
  0.72674E-02
  0.12307E-01
  0.13842E-01
 -0.96636E-04
  0.23817E-02
  0.29365E-02
  0.26235E-01
 -0.12534E-01
 -0.10326E-01
 -0.12438E-01
 -0.10310E-01
 -0.88842E-02
 -0.86764E-02
 -0.97300E-02
 -0.79269E-02
 -0.95250E-02
 -0.85789E-02
 -0.64556E-02
 -0.63569E-02
 -0.43008E-02
 -0.34702E-02
 -0.17337E-02
 -0.41651E-03
  0.77156E-03
  0.25099E-02
  0.18260E-01
  0.29863E-02
  0.49383E-02
  0.48386E-02
  0.66922E-02
  0.63326E-02
  0.78875E-02
  0.86081E-02
  0.92721E-02
  0.15591E-02
  0.10252E-01
  0.36231E-02
  0.10453E-01
 -0.40044E-01
 -0.64561E-02
  0.44462E-02
 -0.15294E-01
 -0.66457E-02
 -0.52172E-02
  0.12663E-01
  0.75070E-02
  0.23563E-02
  0.42450E-02
  0.36957E-02
  0.48561E-02
 -0.17042E-02
 -0.30070E-02
  0.23617E-02
  0.37934E-03
  0.61938E-02
  0.62448E-02
  0.68097E-02
 -0.68314E-02
  0.52273E-02
  0.33249E-02
  0.10359E-01
 -0.10884E-01
  0.35559E-02
  0.13964E-01
  0.12610E-01
 -0.15904E-01
 -0.50398E-02
 -0.37442E-02
 -0.35485E-02
 -0.22856E-02
 -0.17397E-02
 -0.80913E-03
  0.45213E-04
  0.55691E-03
  0.15105E-02
  0.18508E-02
  0.26565E-02
  0.22320E-02
  0.31021E-02
  0.32975E-02
  0.30024E-02
  0.31428E-02
  0.17200E-02
  0.20351E-02
 -0.74401E-03
  0.57952E-03
 -0.32312E-02
 -0.31142E-03
 -0.39871E-02
  0.96469E-04
 -0.22909E-02
  0.14365E-02
  0.28929E-03
  0.29034E-02
  0.23423E-02
  0.41624E-02
  0.37751E-02
  0.51446E-02
 -0.77576E-02
  0.51442E-02
  0.49011E-02
  0.55260E-02
  0.24040E-02
 -0.43829E-02
  0.57585E-02
 -0.89211E-02
  0.65337E-02
 -0.22213E-02
 -0.37366E-01
  0.73908E-02
  0.84042E-02
  0.69029E-02
  0.75882E-03
  0.19790E-02
 -0.93856E-03
 -0.19324E-02
  0.62875E-02
 -0.11108E-01
  0.11345E-01
  0.15541E-01
  0.15161E-01
  0.59832E-02
  0.63264E-02
  0.70850E-02
  0.38842E-02
  0.24149E-02
  0.11717E-02
  0.11506E-01
 -0.27138E-02
  0.17254E-01
  0.47516E-02
 -0.39058E-02
 -0.50091E-02
 -0.17444E-02
  0.51177E-02
  0.43036E-02
  0.58108E-02
 -0.81978E-02
  0.16729E-02
 -0.43651E-02
  0.29684E-02
  0.16007E-01
 -0.59884E-02
  0.75965E-02
  0.18673E-02
  0.22885E-02
  0.14093E-01
 -0.38599E-02
 -0.25137E-02
 -0.40539E-02
 -0.26429E-02
  0.17725E-01
  0.43465E-02
  0.73882E-02
  0.77818E-02
 -0.69393E-02
  0.56661E-02
  0.52882E-02
  0.58486E-02
  0.65024E-02
 -0.17720E-02
  0.25364E-02
  0.19073E-02
  0.91916E-03
 -0.23929E-03
  0.77271E-03
  0.18398E-01
  0.16143E-01
  0.24917E-02
  0.19275E-02
  0.77907E-03
  0.19396E-02
  0.12986E-02
  0.23932E-02
  0.22551E-02
  0.30480E-02
  0.31517E-02
  0.35619E-02
  0.37099E-02
  0.37546E-02
  0.38504E-02
  0.37067E-02
  0.36865E-02
  0.34915E-02
  0.33389E-02
  0.31669E-02
  0.27661E-02
  0.27027E-02
  0.20942E-02
  0.21369E-02
  0.12866E-02
  0.14777E-02
  0.41637E-03
  0.84223E-03
 -0.45720E-03
  0.30824E-03
 -0.10681E-02
 -0.10116E-03
 -0.11792E-02
 -0.23672E-03
  0.27515E-03
  0.23439E-04
  0.32585E-02
  0.11482E-02
 -0.88157E-04
 -0.27688E-03
 -0.77351E-03
  0.84010E-02
  0.75954E-02
 -0.73624E-02
 -0.26884E-03
 -0.36356E-03
  0.57786E-02
  0.60245E-02
  0.48840E-02
  0.51723E-02
  0.35221E-02
  0.34816E-02
  0.44090E-02
  0.35429E-02
  0.53037E-02
  0.40399E-02
 -0.36000E-02
 -0.23249E-02
  0.33156E-02
  0.21212E-02
 -0.24460E-01
 -0.30513E-02
 -0.41007E-02
 -0.49684E-02
 -0.26832E-02
 -0.14246E-02
 -0.15188E-02
 -0.96056E-02
 -0.49208E-02
 -0.30111E-02
  0.72475E-02
  0.56675E-02
  0.18281E-01
  0.15097E-01
  0.21672E-01
  0.63406E-02
 -0.21903E-01
 -0.76668E-02
 -0.69487E-02
 -0.32764E-02
 -0.26460E-02
 -0.45939E-04
 -0.57716E-03
 -0.14622E-01
 -0.17948E-01
 -0.16750E-01
 -0.19428E-01
 -0.23308E-01
 -0.22755E-01
 -0.29474E-01
 -0.28466E-01
 -0.35856E-01
 -0.34718E-01
  0.65059E-02
  0.64953E-02
  0.16427E-01
  0.12850E-01
  0.11720E-01
  0.24431E-02
  0.19536E-02
 -0.13786E-02
 -0.46927E-02
 -0.55605E-03
  0.24910E-02
 -0.18167E-01
 -0.15808E-01
 -0.18544E-01
 -0.15853E-01
 -0.58933E-02
  0.11786E-02
  0.20915E-02
 -0.40226E-01
 -0.38445E-01
 -0.19238E-02
 -0.19946E-02
  0.93048E-02
  0.63808E-02
 -0.15739E-01
  0.51197E-02
  0.47826E-02
  0.46859E-02
  0.42782E-02
  0.35726E-02
 -0.33640E-02
  0.10241E-01
 -0.33741E-01
 -0.35735E-01
 -0.38496E-01
 -0.32517E-01
 -0.32107E-01
 -0.24148E-01
 -0.29469E-01
  0.13937E-01
  0.19640E-02
  0.38885E-02
  0.54706E-02
  0.33411E-02
  0.26532E-02
  0.23090E-02
  0.18384E-02
  0.13348E-02
  0.16402E-02
  0.60599E-02
 -0.31703E-01
 -0.57119E-03
  0.63873E-03
  0.55207E-03
  0.31127E-02
  0.15860E-02
  0.40583E-02
  0.23541E-02
  0.55715E-02
  0.16038E-02
  0.53002E-03
 -0.31994E-03
 -0.12816E-02
 -0.23520E-02
 -0.30817E-02
 -0.41591E-02
 -0.46455E-02
  0.10251E-02
 -0.22756E-03
 -0.91216E-03
 -0.24537E-02
 -0.58598E-02
 -0.66320E-02
 -0.33238E-01
 -0.39210E-03
 -0.57601E-03
  0.44791E-02
  0.27953E-02
  0.22199E-02
 -0.20492E-01
 -0.28351E-01
 -0.67744E-02
 -0.63428E-02
  0.58609E-03
  0.57159E-04
 -0.21700E-01
 -0.17700E-03
 -0.57677E-03
 -0.10148E-01
  0.83021E-02
  0.70213E-02
  0.60865E-02
  0.89403E-02
  0.96210E-02
  0.10422E-01
  0.97616E-02
  0.10321E-01
  0.10952E-01
  0.10598E-01
  0.11128E-01
  0.10226E-01
 -0.18888E-01
 -0.15282E-01
  0.12215E-02
  0.20893E-02
  0.54114E-02
  0.14477E-03
 -0.18628E-01
  0.36282E-02
  0.44736E-02
  0.65036E-02
 -0.72323E-02
 -0.37310E-03
  0.35806E-03
  0.26537E-03
 -0.77669E-03
  0.59013E-02
 -0.13228E-01
 -0.11542E-01
 -0.13297E-01
 -0.77559E-02
 -0.65269E-03
 -0.51919E-02
  0.84879E-02
  0.10636E-01
  0.10991E-01
 -0.39745E-02
  0.39923E-02
  0.11636E-01
 -0.41921E-02
  0.12010E-01
 -0.22762E-02
 -0.18823E-03
  0.18275E-02
 -0.17060E-02
 -0.14185E-02
 -0.23295E-01
 -0.77507E-02
 -0.28444E-01
 -0.11330E-02
 -0.21673E-02
 -0.21129E-01
 -0.68086E-02
  0.38181E-02
 -0.87718E-02
  0.35846E-02
  0.12598E-01
  0.91191E-02
  0.20518E-02
  0.14150E-01
  0.68781E-02
  0.14731E-02
  0.55579E-02
  0.15638E-02
 -0.36332E-02
  0.18223E-01
  0.17119E-01
  0.20883E-01
  0.13947E-01
  0.15462E-01
 -0.16789E-02
 -0.82864E-02
  0.15136E-02
  0.56036E-02
 -0.36880E-01
 -0.36186E-01
 -0.22811E-01
 -0.88902E-02
  0.35838E-02
  0.40151E-02
 -0.36919E-01
 -0.35388E-01
 -0.33485E-01
  0.14721E-01
  0.19546E-01
  0.16512E-02
 -0.29373E-01
  0.28207E-01
 -0.33217E-01
  0.63687E-02
  0.78923E-02
  0.47381E-02
 -0.26625E-02
  0.90289E-02
  0.79699E-02
  0.24966E-01
 -0.38142E-01
 -0.12990E-02
 -0.71587E-02
 -0.22956E-02
 -0.18178E-02
 -0.12630E-02
 -0.19605E-01
 -0.88849E-03
 -0.20156E-02
  0.43056E-02
  0.17591E-02
 -0.25796E-01
  0.91994E-02
  0.53287E-02
  0.41609E-02
  0.45569E-02
 -0.21061E-01
  0.62512E-02
  0.60734E-02
  0.63268E-02
  0.55379E-02
  0.27410E-02
  0.24170E-02
  0.10464E-01
  0.10615E-01
  0.10147E-01
  0.10076E-01
  0.10789E-01
  0.99213E-02
 -0.67754E-02
  0.54916E-02
  0.24712E-01
  0.60448E-02
  0.68872E-02
  0.74914E-02
  0.79785E-02
  0.83169E-02
 -0.37235E-02
 -0.49961E-02
 -0.34960E-01
 -0.31179E-01
 -0.32167E-01
 -0.31500E-01
  0.31494E-02
  0.34378E-02
  0.93935E-02
  0.91252E-02
  0.96776E-02
  0.87474E-02
  0.91730E-02
  0.82632E-02
  0.79158E-02
  0.86286E-02
 -0.25610E-02
 -0.38146E-02
 -0.12294E-01
  0.73301E-02
  0.71238E-02
  0.65406E-02
  0.63646E-02
  0.59544E-02
  0.69888E-02
  0.70321E-02
  0.20127E-01
 -0.91376E-02
 -0.82114E-02
 -0.35254E-03
  0.46845E-02
  0.49847E-02
 -0.14440E-02
 -0.29564E-01
 -0.16714E-01
 -0.19720E-01
  0.15119E-01
 -0.13806E-02
 -0.32006E-03
  0.18539E-01
 -0.18804E-01
  0.97012E-02
 -0.43853E-01
 -0.19390E-01
 -0.42952E-02
 -0.56343E-02
 -0.55056E-02
 -0.55688E-02
 -0.17449E-01
 -0.48802E-02
 -0.13368E-01
  0.71919E-02
 -0.28616E-01
  0.80952E-02
 -0.19720E-02
 -0.68371E-03
  0.23298E-02
 -0.26694E-01
 -0.28812E-01
  0.59096E-02
 -0.20726E-01
 -0.13706E-01
 -0.57661E-02
 -0.30947E-01
  0.53513E-02
 -0.88718E-03
 -0.60449E-02
 -0.10630E-01
 -0.16612E-02
 -0.58617E-02
  0.12924E-02
 -0.99466E-04
 -0.17281E-01
  0.13844E-01
 -0.22980E-01
 -0.35300E-02
  0.88649E-02
  0.47467E-02
  0.68267E-03
 -0.73955E-04
  0.41934E-03
 -0.54879E-02
  0.38643E-02
 -0.32527E-02
  0.45966E-02
 -0.83885E-03
 -0.40665E-01
  0.87447E-02
  0.85348E-02
  0.11824E-01
  0.11404E-01
  0.11762E-01
 -0.43059E-01
  0.93004E-03
  0.10957E-02
  0.15939E-02
  0.11423E-02
  0.15891E-02
  0.69650E-03
  0.19805E-02
  0.20625E-02
 -0.61420E-03
 -0.26439E-03
  0.78766E-03
  0.58567E-03
  0.14604E-02
  0.16087E-02
  0.20929E-02
  0.22878E-02
  0.27648E-02
  0.25985E-02
 -0.57209E-02
  0.90381E-03
  0.29314E-02
 -0.52865E-02
 -0.57615E-02
 -0.77201E-02
 -0.79865E-02
 -0.22551E-01
 -0.33293E-02
 -0.74053E-02
 -0.63986E-02
 -0.10515E-01
 -0.94782E-02
  0.25278E-01
  0.51540E-02
  0.24574E-02
  0.45932E-02
  0.75741E-02
 -0.79149E-02
  0.15374E-02
  0.12895E-01
  0.10232E-01
  0.10123E-01
  0.97069E-02
  0.96554E-02
  0.93507E-02
  0.92059E-02
  0.96317E-02
 -0.10020E-03
  0.88197E-02
  0.12254E-02
  0.71826E-03
 -0.17857E-02
 -0.10391E-01
 -0.14051E-01
 -0.12604E-01
 -0.13910E-01
 -0.13626E-01
  0.21636E-02
  0.25014E-02
  0.26818E-02
  0.27518E-02
  0.27241E-02
  0.28924E-02
  0.29398E-02
  0.94836E-02
  0.60828E-02
  0.26315E-02
  0.27057E-02
  0.28825E-02
  0.28134E-02
  0.25063E-02
  0.24040E-02
  0.28636E-02
  0.29815E-02
  0.28603E-02
  0.30102E-02
  0.29927E-02
  0.32520E-02
  0.27357E-02
  0.29187E-02
  0.48321E-02
  0.52989E-02
 -0.34149E-01
 -0.65781E-04
 -0.30364E-02
 -0.98659E-03
 -0.55818E-02
 -0.81738E-02
  0.10181E-02
  0.34716E-03
  0.12702E-02
 -0.51315E-03
  0.27574E-02
  0.32843E-02
  0.25036E-02
  0.25640E-02
 -0.10101E-01
 -0.95492E-02
 -0.51694E-02
 -0.46978E-02
 -0.70034E-02
 -0.12861E-02
 -0.15631E-02
  0.83267E-03
  0.10708E-02
 -0.23837E-01
  0.35926E-02
  0.39020E-02
  0.47510E-02
  0.41755E-02
  0.33992E-02
  0.98894E-03
 -0.19032E-02
  0.47672E-02
  0.49357E-02
  0.50072E-02
  0.54021E-02
  0.54130E-02
  0.52663E-02
  0.78098E-02
 -0.52988E-02
  0.56912E-03
  0.22360E-02
  0.31972E-03
  0.26331E-02
  0.27583E-02
  0.25907E-02
  0.28960E-02
 -0.56971E-02
  0.52789E-02
 -0.10808E-02
 -0.78398E-02
  0.21538E-02
 -0.34019E-02
  0.32837E-02
  0.64299E-03
 -0.34355E-04
  0.31611E-02
 -0.33645E-02
 -0.82723E-03
 -0.28760E-02
 -0.23022E-02
  0.23754E-02
  0.24089E-02
  0.19191E-02
  0.11377E-01
  0.12733E-01
 -0.73109E-03
  0.21873E-02
  0.26092E-02
  0.65803E-03
  0.72342E-03
  0.21302E-02
  0.90958E-03
  0.47953E-02
  0.47947E-02
  0.19075E-02
  0.48310E-03
  0.45501E-03
 -0.88516E-03
  0.80625E-03
  0.60456E-03
  0.14059E-03
  0.44634E-03
  0.10507E-02
  0.91168E-02
  0.89684E-02
  0.17683E-02
  0.22375E-02
  0.66898E-02
  0.62288E-02
  0.56918E-02
 -0.16674E-02
 -0.89397E-03
 -0.18835E-03
  0.45162E-03
  0.34979E-02
  0.23937E-02
  0.29980E-02
  0.15815E-02
  0.29166E-03
  0.49628E-02
  0.65514E-02
  0.27266E-02
  0.29724E-02
 -0.27713E-02
 -0.13983E-02
 -0.90130E-02
  0.84713E-02
  0.36752E-03
  0.28482E-02
  0.39956E-02
  0.52624E-02
 -0.27404E-02
  0.42800E-02
  0.10648E-02
  0.25717E-02
  0.22869E-02
  0.23129E-02
 -0.11662E-02
  0.52940E-02
  0.66526E-02
  0.60247E-02
 -0.48252E-02
 -0.17280E-02
 -0.43496E-02
  0.22058E-02
  0.19960E-02
  0.53087E-02
 -0.98713E-02
 -0.55087E-02
  0.34796E-02
 -0.74085E-03
  0.47527E-02
  0.55862E-02
 -0.11593E-01
 -0.84856E-02
  0.25907E-02
  0.83895E-02
  0.89644E-03
  0.32397E-02
  0.17409E-02
  0.35566E-02
 -0.25464E-02
  0.16130E-02
  0.90946E-02
  0.65312E-03
 -0.97833E-02
  0.91369E-02
  0.41913E-02
 -0.12731E-01
  0.41640E-02
  0.42188E-03
  0.29447E-02
 -0.52994E-02
  0.34997E-02
 -0.92747E-02
  0.99792E-02
  0.12583E-02
  0.83334E-02
 -0.15360E-01
 -0.79313E-02
  0.89165E-03
 -0.93571E-02
 -0.16905E-01
 -0.14617E-02
  0.12595E-02
 -0.15322E-01
  0.30499E-02
 -0.39983E-03
 -0.26591E-02
  0.99549E-03
 -0.17582E-01
 -0.29922E-02
  0.69397E-03
 -0.25096E-01
  0.76512E-02
 -0.12249E-01
 -0.51867E-02
  0.53423E-02
 -0.56408E-03
 -0.59891E-02
 -0.56383E-02
  0.76814E-02
  0.65362E-02
  0.29661E-02
  0.51690E-03
 -0.28877E-02
  0.76053E-02
 -0.98499E-03
 -0.90984E-03
 -0.10261E-01
  0.83675E-02
  0.86101E-02
  0.48563E-02
 -0.35878E-02
 -0.57168E-02
 -0.18886E-01
 -0.11254E-01
 -0.72921E-02
 -0.73836E-02
  0.10366E-01
 -0.55853E-03
 -0.59058E-03
  0.28188E-02
  0.56483E-02
  0.86609E-02
  0.94023E-02
  0.44209E-02
 -0.12693E-01
 -0.12634E-01
 -0.86043E-02
  0.10016E-02
  0.14355E-01
  0.78718E-03
 -0.14094E-01
  0.31874E-02
 -0.48344E-02
  0.23002E-01
 -0.43548E-03
  0.13360E-02
 -0.15576E-02
 -0.83855E-02
  0.11120E-01
 -0.50537E-04
  0.51076E-02
 -0.13192E-02
  0.72191E-02
 -0.16124E-01
  0.11647E-01
  0.12658E-01
  0.18286E-01
  0.10646E-01
  0.28361E-02
 -0.12045E-01
  0.83778E-02
  0.35463E-03
 -0.80126E-02
  0.32386E-02
 -0.35942E-02
  0.11042E-01
  0.27596E-02
 -0.63353E-02
  0.92624E-02
 -0.67783E-02
  0.15979E-02
  0.59598E-03
  0.82029E-04
  0.34467E-02
 -0.38063E-02
 -0.43972E-02
 -0.11584E-01
  0.65039E-02
 -0.20551E-01
  0.25911E-02
 -0.13299E-02
  0.33995E-02
  0.24655E-02
  0.99068E-02
  0.28348E-02
  0.15040E-03
 -0.20166E-01
  0.29036E-02
 -0.12109E-01
 -0.20701E-03
  0.43887E-02
  0.24965E-02
  0.35279E-02
  0.32978E-02
 -0.98786E-03
 -0.12240E-01
  0.35409E-03
  0.14353E-02
 -0.79471E-02
 -0.34974E-03
  0.32993E-02
  0.51074E-02
 -0.13587E-01
  0.32520E-02
 -0.60871E-02
  0.90972E-02
 -0.15484E-01
  0.10332E-01
 -0.10705E-02
  0.42886E-02
  0.22901E-02
 -0.35483E-02
  0.48902E-02
 -0.18098E-03
  0.56331E-02
  0.29869E-02
 -0.29228E-01
  0.63595E-02
  0.32274E-02
  0.12931E-01
  0.10110E-01
  0.67175E-02
  0.74816E-02
  0.64821E-02
  0.65512E-02
  0.53776E-02
  0.87517E-02
  0.58908E-02
  0.54451E-02
 -0.78665E-03
 -0.34417E-01
 -0.13601E-02
 -0.59210E-02
 -0.58437E-02
  0.57035E-02
 -0.44536E-02
 -0.81541E-02
 -0.80531E-03
 -0.77593E-03
  0.20975E-01
  0.22712E-01
  0.78112E-02
  0.31135E-02
  0.20362E-01
  0.81558E-02
  0.85069E-04
 -0.33622E-01
 -0.13976E-01
  0.87352E-03
 -0.57069E-02
  0.58111E-02
 -0.24523E-02
  0.18872E-02
 -0.20311E-02
 -0.42155E-02
  0.12843E-01
 -0.11960E-01
  0.29567E-02
  0.25959E-02
  0.81768E-02
 -0.27842E-01
  0.43683E-02
 -0.12650E-01
 -0.38278E-01
 -0.18660E-02
  0.23593E-02
  0.48488E-02
  0.91118E-02
  0.56859E-03
  0.71613E-03
 -0.32386E-02
 -0.93885E-02
 -0.34010E-01
  0.28180E-02
 -0.10872E-01
  0.24096E-02
  0.25119E-02
 -0.39962E-03
  0.74854E-02
 -0.28412E-01
  0.89837E-02
  0.49015E-02
 -0.31476E-01
  0.76801E-04
  0.53567E-02
  0.70786E-03
 -0.89381E-02
 -0.39215E-02
  0.12938E-01
  0.30242E-02
 -0.42065E-01
  0.16232E-01
  0.10003E-01
  0.87481E-02
  0.14260E-01
  0.95769E-02
 -0.44414E-02
 -0.97505E-02
  0.13795E-01
 -0.39168E-02
  0.29883E-02
  0.10441E-01
  0.11584E-01
  0.95091E-02
 -0.28201E-02
 -0.20000E-01
 -0.13649E-01
  0.39754E-02
 -0.10043E-01
 -0.18779E-01
  0.10188E-01
 -0.18162E-01
  0.10759E-02
  0.97778E-02
 -0.12495E-02
  0.11975E-02
 -0.65135E-02
 -0.89540E-03
  0.11024E-01
  0.22948E-01
 -0.29113E-01
  0.17203E-02
  0.54233E-02
 -0.11101E-02
 -0.38664E-01
 -0.22040E-01
 -0.64457E-02
 -0.27561E-02
 -0.17896E-02
 -0.78892E-03
  0.61229E-02
  0.76503E-02
  0.15162E-02
 -0.19107E-01
 -0.10587E-01
 -0.27583E-01
  0.60249E-02
 -0.14604E-01
  0.46963E-02
  0.10174E-01
  0.89387E-02
  0.39546E-03
 -0.78432E-02
 -0.14164E-01
 -0.17655E-02
  0.36413E-02
  0.83640E-02
 -0.13779E-01
 -0.11657E-01
 -0.43740E-01
 -0.36042E-01
  0.11102E-01
  0.75823E-02
  0.36032E-02
  0.22140E-02
 -0.17309E-02
  
 VECTORS vector_U float