# vtk DataFile Version 2.0
Unstructured Grid UFVM-ECOMOD
ASCII
DATASET UNSTRUCTURED_GRID
 POINTS         1810  float
  0.00000E+00  0.00000E+00  0.00000E+00
  0.40000E+01  0.00000E+00  0.00000E+00
  0.40000E+01  0.20000E+01  0.00000E+00
  0.00000E+00  0.20000E+01  0.00000E+00
  0.12217E+01  0.98333E+00  0.00000E+00
  0.81167E+00  0.11389E+01  0.00000E+00
  0.12217E+01  0.12944E+01  0.00000E+00
  0.10000E+00  0.00000E+00  0.00000E+00
  0.20000E+00  0.00000E+00  0.00000E+00
  0.30000E+00  0.00000E+00  0.00000E+00
  0.40000E+00  0.00000E+00  0.00000E+00
  0.50000E+00  0.00000E+00  0.00000E+00
  0.60000E+00  0.00000E+00  0.00000E+00
  0.70000E+00  0.00000E+00  0.00000E+00
  0.80000E+00  0.00000E+00  0.00000E+00
  0.90000E+00  0.00000E+00  0.00000E+00
  0.10000E+01  0.00000E+00  0.00000E+00
  0.11000E+01  0.00000E+00  0.00000E+00
  0.12000E+01  0.00000E+00  0.00000E+00
  0.13000E+01  0.00000E+00  0.00000E+00
  0.14000E+01  0.00000E+00  0.00000E+00
  0.15000E+01  0.00000E+00  0.00000E+00
  0.16000E+01  0.00000E+00  0.00000E+00
  0.17000E+01  0.00000E+00  0.00000E+00
  0.18000E+01  0.00000E+00  0.00000E+00
  0.19000E+01  0.00000E+00  0.00000E+00
  0.20000E+01  0.00000E+00  0.00000E+00
  0.21000E+01  0.00000E+00  0.00000E+00
  0.22000E+01  0.00000E+00  0.00000E+00
  0.23000E+01  0.00000E+00  0.00000E+00
  0.24000E+01  0.00000E+00  0.00000E+00
  0.25000E+01  0.00000E+00  0.00000E+00
  0.26000E+01  0.00000E+00  0.00000E+00
  0.27000E+01  0.00000E+00  0.00000E+00
  0.28000E+01  0.00000E+00  0.00000E+00
  0.29000E+01  0.00000E+00  0.00000E+00
  0.30000E+01  0.00000E+00  0.00000E+00
  0.31000E+01  0.00000E+00  0.00000E+00
  0.32000E+01  0.00000E+00  0.00000E+00
  0.33000E+01  0.00000E+00  0.00000E+00
  0.34000E+01  0.00000E+00  0.00000E+00
  0.35000E+01  0.00000E+00  0.00000E+00
  0.36000E+01  0.00000E+00  0.00000E+00
  0.37000E+01  0.00000E+00  0.00000E+00
  0.38000E+01  0.00000E+00  0.00000E+00
  0.39000E+01  0.00000E+00  0.00000E+00
  0.40000E+01  0.10000E+00  0.00000E+00
  0.40000E+01  0.20000E+00  0.00000E+00
  0.40000E+01  0.30000E+00  0.00000E+00
  0.40000E+01  0.40000E+00  0.00000E+00
  0.40000E+01  0.50000E+00  0.00000E+00
  0.40000E+01  0.60000E+00  0.00000E+00
  0.40000E+01  0.70000E+00  0.00000E+00
  0.40000E+01  0.80000E+00  0.00000E+00
  0.40000E+01  0.90000E+00  0.00000E+00
  0.40000E+01  0.10000E+01  0.00000E+00
  0.40000E+01  0.11000E+01  0.00000E+00
  0.40000E+01  0.12000E+01  0.00000E+00
  0.40000E+01  0.13000E+01  0.00000E+00
  0.40000E+01  0.14000E+01  0.00000E+00
  0.40000E+01  0.15000E+01  0.00000E+00
  0.40000E+01  0.16000E+01  0.00000E+00
  0.40000E+01  0.17000E+01  0.00000E+00
  0.40000E+01  0.18000E+01  0.00000E+00
  0.40000E+01  0.19000E+01  0.00000E+00
  0.39000E+01  0.20000E+01  0.00000E+00
  0.38000E+01  0.20000E+01  0.00000E+00
  0.37000E+01  0.20000E+01  0.00000E+00
  0.36000E+01  0.20000E+01  0.00000E+00
  0.35000E+01  0.20000E+01  0.00000E+00
  0.34000E+01  0.20000E+01  0.00000E+00
  0.33000E+01  0.20000E+01  0.00000E+00
  0.32000E+01  0.20000E+01  0.00000E+00
  0.31000E+01  0.20000E+01  0.00000E+00
  0.30000E+01  0.20000E+01  0.00000E+00
  0.29000E+01  0.20000E+01  0.00000E+00
  0.28000E+01  0.20000E+01  0.00000E+00
  0.27000E+01  0.20000E+01  0.00000E+00
  0.26000E+01  0.20000E+01  0.00000E+00
  0.25000E+01  0.20000E+01  0.00000E+00
  0.24000E+01  0.20000E+01  0.00000E+00
  0.23000E+01  0.20000E+01  0.00000E+00
  0.22000E+01  0.20000E+01  0.00000E+00
  0.21000E+01  0.20000E+01  0.00000E+00
  0.20000E+01  0.20000E+01  0.00000E+00
  0.19000E+01  0.20000E+01  0.00000E+00
  0.18000E+01  0.20000E+01  0.00000E+00
  0.17000E+01  0.20000E+01  0.00000E+00
  0.16000E+01  0.20000E+01  0.00000E+00
  0.15000E+01  0.20000E+01  0.00000E+00
  0.14000E+01  0.20000E+01  0.00000E+00
  0.13000E+01  0.20000E+01  0.00000E+00
  0.12000E+01  0.20000E+01  0.00000E+00
  0.11000E+01  0.20000E+01  0.00000E+00
  0.10000E+01  0.20000E+01  0.00000E+00
  0.90000E+00  0.20000E+01  0.00000E+00
  0.80000E+00  0.20000E+01  0.00000E+00
  0.70000E+00  0.20000E+01  0.00000E+00
  0.60000E+00  0.20000E+01  0.00000E+00
  0.50000E+00  0.20000E+01  0.00000E+00
  0.40000E+00  0.20000E+01  0.00000E+00
  0.30000E+00  0.20000E+01  0.00000E+00
  0.20000E+00  0.20000E+01  0.00000E+00
  0.10000E+00  0.20000E+01  0.00000E+00
  0.00000E+00  0.19000E+01  0.00000E+00
  0.00000E+00  0.18000E+01  0.00000E+00
  0.00000E+00  0.17000E+01  0.00000E+00
  0.00000E+00  0.16000E+01  0.00000E+00
  0.00000E+00  0.15000E+01  0.00000E+00
  0.00000E+00  0.14000E+01  0.00000E+00
  0.00000E+00  0.13000E+01  0.00000E+00
  0.00000E+00  0.12000E+01  0.00000E+00
  0.00000E+00  0.11000E+01  0.00000E+00
  0.00000E+00  0.10000E+01  0.00000E+00
  0.00000E+00  0.90000E+00  0.00000E+00
  0.00000E+00  0.80000E+00  0.00000E+00
  0.00000E+00  0.70000E+00  0.00000E+00
  0.00000E+00  0.60000E+00  0.00000E+00
  0.00000E+00  0.50000E+00  0.00000E+00
  0.00000E+00  0.40000E+00  0.00000E+00
  0.00000E+00  0.30000E+00  0.00000E+00
  0.00000E+00  0.20000E+00  0.00000E+00
  0.00000E+00  0.10000E+00  0.00000E+00
  0.11989E+01  0.99198E+00  0.00000E+00
  0.11761E+01  0.10006E+01  0.00000E+00
  0.11533E+01  0.10093E+01  0.00000E+00
  0.11306E+01  0.10179E+01  0.00000E+00
  0.11078E+01  0.10265E+01  0.00000E+00
  0.10850E+01  0.10352E+01  0.00000E+00
  0.10622E+01  0.10438E+01  0.00000E+00
  0.10394E+01  0.10525E+01  0.00000E+00
  0.10167E+01  0.10611E+01  0.00000E+00
  0.99389E+00  0.10697E+01  0.00000E+00
  0.97111E+00  0.10784E+01  0.00000E+00
  0.94833E+00  0.10870E+01  0.00000E+00
  0.92556E+00  0.10957E+01  0.00000E+00
  0.90278E+00  0.11043E+01  0.00000E+00
  0.88000E+00  0.11130E+01  0.00000E+00
  0.85722E+00  0.11216E+01  0.00000E+00
  0.83444E+00  0.11302E+01  0.00000E+00
  0.83444E+00  0.11475E+01  0.00000E+00
  0.85722E+00  0.11562E+01  0.00000E+00
  0.88000E+00  0.11648E+01  0.00000E+00
  0.90278E+00  0.11735E+01  0.00000E+00
  0.92556E+00  0.11821E+01  0.00000E+00
  0.94833E+00  0.11907E+01  0.00000E+00
  0.97111E+00  0.11994E+01  0.00000E+00
  0.99389E+00  0.12080E+01  0.00000E+00
  0.10167E+01  0.12167E+01  0.00000E+00
  0.10394E+01  0.12253E+01  0.00000E+00
  0.10622E+01  0.12340E+01  0.00000E+00
  0.10850E+01  0.12426E+01  0.00000E+00
  0.11078E+01  0.12512E+01  0.00000E+00
  0.11306E+01  0.12599E+01  0.00000E+00
  0.11533E+01  0.12685E+01  0.00000E+00
  0.11761E+01  0.12772E+01  0.00000E+00
  0.11989E+01  0.12858E+01  0.00000E+00
  0.12217E+01  0.12705E+01  0.00000E+00
  0.12217E+01  0.12466E+01  0.00000E+00
  0.12217E+01  0.12227E+01  0.00000E+00
  0.12217E+01  0.11987E+01  0.00000E+00
  0.12217E+01  0.11748E+01  0.00000E+00
  0.12217E+01  0.11508E+01  0.00000E+00
  0.12217E+01  0.11269E+01  0.00000E+00
  0.12217E+01  0.11030E+01  0.00000E+00
  0.12217E+01  0.10791E+01  0.00000E+00
  0.12217E+01  0.10551E+01  0.00000E+00
  0.12217E+01  0.10312E+01  0.00000E+00
  0.12217E+01  0.10073E+01  0.00000E+00
  0.12429E+01  0.10188E+01  0.00000E+00
  0.12399E+01  0.11882E+01  0.00000E+00
  0.21377E+01  0.78680E-01  0.00000E+00
  0.21538E+01  0.19174E+01  0.00000E+00
  0.83774E+00  0.11061E+01  0.00000E+00
  0.97541E+00  0.10554E+01  0.00000E+00
  0.11166E+01  0.10045E+01  0.00000E+00
  0.29463E+01  0.19156E+01  0.00000E+00
  0.26515E+01  0.81480E-01  0.00000E+00
  0.25477E+01  0.19110E+01  0.00000E+00
  0.30502E+01  0.68680E-01  0.00000E+00
  0.83912E+00  0.11750E+01  0.00000E+00
  0.95224E+00  0.12148E+01  0.00000E+00
  0.10661E+01  0.12580E+01  0.00000E+00
  0.11804E+01  0.13002E+01  0.00000E+00
  0.39119E+01  0.10505E+01  0.00000E+00
  0.17555E+01  0.84130E-01  0.00000E+00
  0.64649E+00  0.99150E-01  0.00000E+00
  0.17446E+01  0.19250E+01  0.00000E+00
  0.86600E-01  0.65000E+00  0.00000E+00
  0.14551E+01  0.78430E-01  0.00000E+00
  0.96058E+00  0.81690E-01  0.00000E+00
  0.33501E+01  0.19134E+01  0.00000E+00
  0.39162E+01  0.63967E+00  0.00000E+00
  0.82470E-01  0.14561E+01  0.00000E+00
  0.55009E+00  0.19215E+01  0.00000E+00
  0.85020E-01  0.95314E+00  0.00000E+00
  0.39167E+01  0.13623E+01  0.00000E+00
  0.33616E+01  0.95540E-01  0.00000E+00
  0.90682E+00  0.10774E+01  0.00000E+00
  0.10433E+01  0.10284E+01  0.00000E+00
  0.11799E+01  0.97718E+00  0.00000E+00
  0.12429E+01  0.10931E+01  0.00000E+00
  0.12436E+01  0.12583E+01  0.00000E+00
  0.85035E+00  0.19198E+01  0.00000E+00
  0.14457E+01  0.19288E+01  0.00000E+00
  0.11516E+01  0.19130E+01  0.00000E+00
  0.36450E+01  0.85340E-01  0.00000E+00
  0.84610E-01  0.34945E+00  0.00000E+00
  0.36500E+01  0.19134E+01  0.00000E+00
  0.35776E+00  0.89100E-01  0.00000E+00
  0.39086E+01  0.16476E+01  0.00000E+00
  0.39134E+01  0.35000E+00  0.00000E+00
  0.83900E-01  0.11460E+01  0.00000E+00
  0.35715E+00  0.19076E+01  0.00000E+00
  0.83410E-01  0.16549E+01  0.00000E+00
  0.12495E+01  0.81910E-01  0.00000E+00
  0.19505E+01  0.76550E-01  0.00000E+00
  0.23503E+01  0.82860E-01  0.00000E+00
  0.19504E+01  0.19252E+01  0.00000E+00
  0.23461E+01  0.19181E+01  0.00000E+00
  0.28427E+01  0.83720E-01  0.00000E+00
  0.31542E+01  0.19172E+01  0.00000E+00
  0.27508E+01  0.19148E+01  0.00000E+00
  0.39150E+01  0.84994E+00  0.00000E+00
  0.88020E+00  0.11939E+01  0.00000E+00
  0.99745E+00  0.12340E+01  0.00000E+00
  0.12424E+01  0.11389E+01  0.00000E+00
  0.11119E+01  0.12747E+01  0.00000E+00
  0.78910E-01  0.18478E+01  0.00000E+00
  0.38489E+01  0.73890E-01  0.00000E+00
  0.86600E-01  0.15000E+00  0.00000E+00
  0.38461E+01  0.19156E+01  0.00000E+00
  0.83750E-01  0.10487E+01  0.00000E+00
  0.16314E+00  0.10008E+01  0.00000E+00
  0.16591E+00  0.91287E+00  0.00000E+00
  0.23730E+00  0.95594E+00  0.00000E+00
  0.24013E+00  0.87512E+00  0.00000E+00
  0.30661E+00  0.91623E+00  0.00000E+00
  0.30296E+00  0.99591E+00  0.00000E+00
  0.30938E+00  0.83944E+00  0.00000E+00
  0.37444E+00  0.87856E+00  0.00000E+00
  0.37563E+00  0.80503E+00  0.00000E+00
  0.43612E+00  0.84332E+00  0.00000E+00
  0.43924E+00  0.77347E+00  0.00000E+00
  0.49710E+00  0.80859E+00  0.00000E+00
  0.50063E+00  0.74182E+00  0.00000E+00
  0.55658E+00  0.77549E+00  0.00000E+00
[...]
 POINT_DATA         1810
  
 SCALARS WL      float 1
 LOOKUP_TABLE default
  0.12374E-01
  0.19129E-02
 -0.10056E-02
  0.16233E-01
 -0.32980E-01
  0.26761E-01
 -0.13731E-01
  0.12459E-01
  0.12660E-01
  0.12903E-01
  0.13144E-01
  0.13292E-01
  0.13333E-01
  0.13124E-01
  0.12530E-01
  0.11655E-01
  0.10538E-01
  0.93126E-02
  0.80270E-02
  0.68928E-02
  0.59650E-02
  0.53751E-02
  0.50994E-02
  0.51455E-02
  0.54635E-02
  0.60362E-02
  0.68241E-02
  0.76798E-02
  0.85230E-02
  0.91185E-02
  0.93883E-02
  0.91967E-02
  0.86085E-02
  0.77459E-02
  0.67622E-02
  0.57089E-02
  0.48526E-02
  0.42089E-02
  0.39494E-02
  0.40823E-02
  0.44249E-02
  0.49418E-02
  0.52876E-02
  0.52829E-02
  0.45948E-02
  0.31878E-02
  0.00000E+00
  0.00000E+00
  0.00000E+00
  0.00000E+00
  0.00000E+00
  0.00000E+00
  0.00000E+00
  0.00000E+00
  0.00000E+00
  0.00000E+00
  0.00000E+00
  0.00000E+00
  0.00000E+00
  0.00000E+00
  0.00000E+00
  0.00000E+00
  0.00000E+00
  0.00000E+00
  0.00000E+00
 -0.11879E-02
 -0.10799E-02
 -0.23050E-03
  0.12834E-02
  0.32361E-02
  0.49924E-02
  0.65105E-02
  0.77100E-02
  0.82904E-02
  0.81919E-02
  0.74551E-02
  0.64033E-02
  0.53896E-02
  0.46819E-02
  0.43593E-02
  0.44893E-02
  0.46095E-02
  0.47577E-02
  0.49126E-02
  0.51221E-02
  0.52001E-02
  0.51219E-02
  0.49057E-02
  0.46339E-02
  0.44113E-02
  0.44957E-02
  0.49756E-02
  0.57556E-02
  0.69110E-02
  0.82043E-02
  0.95644E-02
  0.10845E-01
  0.11952E-01
  0.12882E-01
  0.13669E-01
  0.14380E-01
  0.15000E-01
  0.15563E-01
  0.16018E-01
  0.16273E-01
  0.16312E-01
  0.16361E-01
  0.16408E-01
  0.16436E-01
  0.16423E-01
  0.16334E-01
  0.16175E-01
  0.15926E-01
  0.15598E-01
  0.15206E-01
  0.14767E-01
  0.14295E-01
  0.13839E-01
  0.13421E-01
  0.13068E-01
  0.12769E-01
  0.12544E-01
  0.12407E-01
 -0.15729E-01
 -0.98864E-02
 -0.54777E-02
 -0.27909E-02
  0.10424E-02
  0.38552E-02
  0.47490E-02
  0.68593E-02
  0.86916E-02
  0.10381E-01
  0.11638E-01
  0.13447E-01
  0.14810E-01
  0.17032E-01
  0.18569E-01
  0.20547E-01
  0.23772E-01
  0.25783E-01
  0.22617E-01
  0.21384E-01
  0.19214E-01
  0.18354E-01
  0.16364E-01
  0.15582E-01
  0.14094E-01
  0.13004E-01
  0.11881E-01
  0.10546E-01
  0.91829E-02
  0.78298E-02
  0.61236E-02
  0.37336E-02
  0.10576E-02
 -0.28111E-02
 -0.18029E-01
 -0.18455E-01
 -0.20952E-01
 -0.24825E-01
 -0.30500E-01
 -0.37349E-01
 -0.44029E-01
 -0.49010E-01
 -0.51593E-01
 -0.51183E-01
 -0.48147E-01
 -0.44446E-01
 -0.46558E-01
 -0.27621E-01
  0.79855E-02
  0.49217E-02
  0.21487E-01
  0.11060E-01
 -0.13268E-02
  0.78286E-02
  0.81725E-02
  0.44237E-02
  0.44928E-02
  0.23087E-01
  0.16003E-01
  0.98711E-02
 -0.31383E-03
 -0.99706E-04
  0.52757E-02
  0.13236E-01
  0.49057E-02
  0.14079E-01
  0.55529E-02
  0.10975E-01
  0.57597E-02
  0.40921E-02
  0.16334E-01
  0.13353E-01
  0.15397E-01
 -0.39623E-02
  0.42715E-02
  0.15702E-01
  0.57932E-02
 -0.11861E-01
 -0.51352E-01
 -0.17651E-01
  0.10318E-01
  0.42907E-02
  0.62323E-02
  0.54164E-02
  0.12950E-01
  0.34341E-03
  0.13058E-01
 -0.25206E-02
  0.34311E-02
  0.16010E-01
  0.14696E-01
  0.16242E-01
  0.73673E-02
  0.64053E-02
  0.92888E-02
  0.51547E-02
  0.46120E-02
  0.63113E-02
  0.80452E-02
  0.58721E-02
  0.30617E-02
  0.20054E-01
  0.13455E-01
 -0.41752E-01
  0.71911E-02
  0.16148E-01
  0.40231E-02
  0.12537E-01
 -0.12784E-02
  0.15738E-01
  0.15583E-01
  0.15260E-01
  0.15495E-01
  0.15181E-01
  0.15434E-01
  0.15731E-01
  0.15108E-01
  0.15363E-01
  0.15008E-01
  0.15228E-01
  0.14855E-01
  0.14996E-01
  0.14604E-01
  0.14651E-01
  0.14227E-01
  0.14152E-01
  0.13744E-01
  0.13503E-01
  0.15452E-01
  0.13173E-01
  0.12738E-01
  0.13171E-01
  0.12199E-01
  0.11860E-01
  0.11093E-01
  0.10900E-01
  0.99445E-02
  0.99042E-02
  0.87691E-02
  0.87695E-02
  0.74259E-02
  0.76294E-02
  0.61290E-02
  0.65915E-02
  0.50369E-02
  0.13868E-01
  0.12743E-01
  0.57062E-02
  0.40855E-02
  0.30449E-02
  0.22153E-02
  0.34471E-02
  0.18398E-02
  0.24037E-03
  0.23846E-03
 -0.17389E-02
 -0.11926E-02
  0.69128E-03
 -0.20179E-03
 -0.23539E-02
 -0.70628E-03
 -0.30609E-02
 -0.56158E-03
 -0.29594E-02
  0.46877E-03
 -0.18286E-02
  0.21829E-02
  0.22422E-03
  0.44385E-02
  0.26815E-02
  0.64434E-02
  0.42784E-02
  0.73010E-02
  0.28629E-02
  0.50517E-02
 -0.28171E-02
 -0.27095E-03
  0.61370E-02
  0.74337E-03
 -0.57408E-02
 -0.51860E-02
 -0.81889E-03
 -0.79822E-02
 -0.93032E-02
 -0.44745E-02
 -0.12425E-01
  0.50234E-02
 -0.79295E-02
 -0.13586E-01
 -0.17318E-01
 -0.15047E-01
 -0.17392E-01
 -0.12931E-01
 -0.80756E-02
 -0.65658E-02
 -0.21393E-02
 -0.22376E-02
 -0.55597E-02
 -0.30536E-02
  0.28271E-03
 -0.14987E-02
  0.19238E-02
 -0.15283E-03
 -0.41335E-02
 -0.25577E-02
  0.11800E-02
 -0.87765E-03
  0.90840E-03
  0.22449E-02
 -0.27954E-03
 -0.28289E-02
 -0.29956E-02
 -0.11899E-02
 -0.48356E-02
 -0.42263E-02
 -0.33481E-02
 -0.50647E-02
 -0.76235E-02
 -0.68897E-03
 -0.54620E-02
 -0.80382E-02
 -0.42993E-02
 -0.20893E-02
 -0.20558E-02
  0.30229E-02
  0.30089E-02
 -0.60255E-02
 -0.90032E-02
 -0.31017E-02
  0.73843E-02
 -0.99472E-03
  0.56550E-02
  0.57554E-02
  0.10856E-01
  0.71085E-02
 -0.27128E-02
  0.11165E-02
 -0.65143E-02
  0.65823E-02
  0.66994E-02
 -0.65720E-03
  0.20983E-02
  0.39935E-02
  0.62431E-02
  0.68554E-02
  0.68437E-02
  0.70640E-02
  0.71962E-02
  0.69566E-02
  0.65785E-02
  0.64747E-02
 -0.36729E-03
 -0.24370E-02
  0.19620E-02
  0.14666E-01
  0.14708E-01
  0.78096E-02
  0.76747E-02
 -0.16981E-02
  0.31196E-02
  0.83805E-02
  0.81808E-02
  0.72510E-02
  0.86908E-02
  0.84348E-02
 -0.57476E-02
 -0.69283E-02
  0.96796E-03
 -0.95550E-03
  0.29265E-02
  0.14854E-02
  0.42592E-02
  0.32529E-02
  0.69514E-03
  0.26775E-02
  0.11054E-02
  0.28921E-02
  0.25884E-02
  0.49484E-02
  0.37647E-02
  0.43817E-02
  0.29942E-02
  0.59080E-02
  0.48738E-02
  0.58790E-02
  0.41582E-02
 -0.73540E-02
 -0.66184E-02
 -0.64094E-02
 -0.50732E-02
 -0.31992E-02
 -0.19160E-02
  0.61705E-03
  0.15435E-02
 -0.18172E-02
 -0.14611E-02
  0.24435E-02
  0.44352E-03
  0.39490E-02
  0.26433E-02
  0.47578E-02
  0.30102E-02
  0.43987E-02
  0.24767E-02
  0.36990E-02
  0.16079E-02
 -0.45450E-03
 -0.17583E-02
  0.57514E-03
 -0.29278E-02
 -0.36466E-03
 -0.37338E-02
 -0.81159E-02
 -0.81854E-02
 -0.39735E-02
 -0.73187E-02
 -0.12542E-01
 -0.99385E-02
 -0.14780E-01
 -0.57358E-02
 -0.69472E-02
 -0.41713E-02
 -0.48342E-02
 -0.26734E-02
 -0.31893E-02
 -0.10375E-02
 -0.11236E-02
  0.67946E-03
  0.12479E-02
  0.26131E-02
  0.34469E-02
  0.44742E-02
  0.55183E-02
  0.61206E-02
  0.72731E-02
 -0.68603E-02
 -0.17057E-02
  0.20849E-02
  0.75387E-02
  0.87330E-02
  0.87181E-02
  0.10011E-01
  0.10124E-01
  0.11292E-01
  0.11024E-01
  0.12274E-01
  0.11853E-01
  0.12984E-01
  0.13695E-01
  0.14092E-01
  0.13474E-01
  0.14414E-01
  0.15131E-01
  0.15247E-01
  0.16042E-01
  0.15928E-01
  0.15274E-01
  0.15797E-01
  0.16417E-01
  0.16166E-01
  0.16701E-01
  0.15290E-01
  0.16375E-01
  0.16783E-01
  0.16442E-01
  0.16170E-01
  0.17130E-01
  0.16049E-01
  0.87579E-02
  0.10241E-01
 -0.53878E-02
  0.16711E-01
  0.17266E-01
  0.16418E-01
  0.16924E-01
  0.17454E-01
 -0.18548E-01
 -0.18496E-01
 -0.23493E-01
 -0.21888E-01
 -0.16117E-01
 -0.22416E-01
 -0.17327E-01
 -0.28716E-01
  0.16188E-02
 -0.20215E-02
 -0.30447E-01
 -0.39895E-01
 -0.39445E-01
 -0.51788E-01
 -0.45839E-01
 -0.57300E-01
 -0.26672E-01
  0.42299E-02
 -0.12215E-01
  0.87521E-02
  0.57091E-02
  0.60443E-02
  0.57890E-02
 -0.33166E-02
  0.13847E-01
  0.12966E-01
  0.13414E-01
  0.63758E-02
  0.76765E-02
  0.70055E-02
 -0.15849E-02
  0.74120E-03
  0.37762E-02
 -0.33871E-02
  0.82368E-02
  0.59692E-02
  0.20562E-02
  0.13305E-02
  0.36303E-02
  0.63032E-02
 -0.44528E-01
 -0.54664E-01
 -0.64578E-01
 -0.60148E-01
  0.15999E-02
  0.87172E-02
  0.87729E-02
  0.10511E-01
  0.16449E-02
  0.49124E-02
  0.16990E-01
  0.17492E-01
  0.18141E-01
  0.18142E-01
  0.17335E-01
  0.17942E-01
  0.75647E-02
  0.32961E-02
 -0.51270E-01
 -0.35669E-01
  0.52510E-02
  0.76665E-02
  0.62212E-02
  0.54155E-02
  0.52123E-02
  0.48390E-02
  0.48624E-02
  0.45752E-02
  0.14113E-02
 -0.11442E-02
 -0.53146E-02
 -0.22271E-02
 -0.61803E-02
 -0.98303E-03
  0.21052E-02
  0.36635E-02
  0.58551E-02
  0.67886E-02
  0.68704E-02
  0.88580E-02
  0.74515E-02
  0.90540E-02
  0.76735E-02
  0.94412E-02
  0.58398E-02
  0.59669E-02
  0.39704E-02
  0.39661E-02
  0.17547E-02
  0.62079E-02
  0.16962E-01
  0.17177E-01
  0.18092E-01
  0.17156E-01
  0.26429E-02
  0.88769E-02
 -0.34291E-01
  0.16564E-02
 -0.93773E-03
 -0.44900E-03
 -0.35252E-02
 -0.32381E-02
 -0.55047E-02
  0.68775E-02
  0.11727E-01
  0.75312E-02
  0.19039E-01
 -0.20234E-02
  0.12144E-01
  0.13140E-01
  0.66650E-02
 -0.26086E-02
  0.16370E-01
  0.16095E-01
  0.16828E-01
  0.15535E-01
  0.16060E-01
  0.87400E-02
  0.14619E-01
  0.14893E-01
  0.12524E-01
  0.83104E-02
  0.93896E-02
  0.10076E-01
 -0.27664E-01
  0.87840E-02
 -0.41542E-02
  0.13092E-01
 -0.65142E-01
 -0.59155E-01
 -0.49525E-01
 -0.47398E-01
  0.30367E-02
  0.25450E-02
  0.16619E-01
  0.57406E-02
 -0.35597E-01
 -0.33522E-01
 -0.41057E-01
 -0.29042E-01
  0.64459E-02
  0.13541E-01
  0.14518E-01
  0.51125E-02
  0.53991E-02
  0.61540E-02
 -0.33014E-01
 -0.23152E-01
 -0.23606E-01
 -0.17024E-01
 -0.39704E-02
  0.15285E-01
  0.49531E-02
  0.49143E-02
  0.40742E-02
 -0.11000E-02
  0.16992E-02
  0.16691E-01
  0.20259E-02
  0.66169E-02
  0.47462E-02
  0.65586E-02
  0.79061E-02
 -0.43412E-01
 -0.30247E-01
 -0.25596E-01
 -0.28498E-01
 -0.16565E-01
  0.87617E-02
  0.57197E-02
  0.70845E-02
 -0.74288E-02
  0.34319E-02
  0.10864E-03
  0.13392E-01
  0.13388E-01
  0.13356E-01
  0.11880E-01
  0.11689E-01
  0.37200E-02
  0.12369E-02
  0.56483E-02
  0.63957E-02
  0.69262E-02
  0.57340E-02
  0.80665E-02
 -0.25377E-02
  0.18790E-01
  0.19962E-01
 -0.21988E-01
  0.42413E-02
  0.41934E-02
  0.46310E-02
  0.81558E-02
 -0.10238E-01
 -0.68641E-02
  0.19314E-01
  0.20613E-01
  0.19495E-01
  0.20572E-01
  0.63558E-02
  0.13801E-01
  0.13604E-01
  0.14218E-01
  0.14033E-01
  0.14595E-01
 -0.16097E-01
  0.10474E-01
  0.11196E-01
  0.74396E-02
  0.74942E-02
 -0.35518E-01
  0.16840E-01
  0.16312E-01
  0.11438E-01
  0.12018E-01
  0.11855E-01
  0.12507E-01
  0.12412E-01
  0.12918E-01
  0.12912E-01
  0.13254E-01
  0.13229E-01
  0.13415E-01
  0.13524E-01
  0.13535E-01
  0.13718E-01
  0.13606E-01
  0.13423E-01
  0.13361E-01
  0.75463E-02
  0.14986E-01
  0.15941E-01
  0.15273E-01
  0.16576E-01
  0.17358E-01
  0.19173E-01
  0.50289E-02
  0.12476E-01
  0.69473E-02
  0.12951E-01
  0.13855E-01
  0.13655E-01
  0.13948E-01
  0.68472E-02
  0.68807E-02
  0.50150E-02
  0.10497E-01
  0.13149E-01
  0.63960E-02
  0.14782E-01
  0.90005E-02
  0.89175E-02
  0.84810E-02
 -0.10830E-01
  0.77730E-02
 -0.67679E-02
 -0.79966E-02
 -0.65174E-01
 -0.63374E-01
 -0.61176E-01
  0.20171E-01
 -0.21500E-01
 -0.14973E-01
  0.64278E-02
 -0.43826E-01
 -0.15904E-01
 -0.88579E-02
 -0.58425E-02
 -0.12656E-01
  0.12218E-01
  0.85743E-02
  0.88458E-02
  0.99096E-02
  0.44885E-02
  0.49678E-02
  0.38014E-02
 -0.13039E-01
 -0.74433E-02
 -0.92011E-02
 -0.69758E-02
 -0.88449E-02
 -0.75948E-02
  0.14453E-01
  0.14930E-01
  0.15074E-01
  0.15345E-01
  0.15493E-01
  0.15263E-01
  0.15702E-01
  0.15808E-01
  0.13708E-01
  0.67790E-02
  0.54533E-02
  0.48532E-02
  0.54004E-02
  0.11333E-01
  0.99232E-02
  0.94148E-02
  0.80488E-02
  0.37678E-02
  0.34484E-02
  0.22708E-02
  0.41594E-02
  0.13698E-01
  0.13367E-01
  0.50941E-02
  0.19768E-01
 -0.36535E-01
 -0.25495E-01
 -0.94445E-03
 -0.43270E-02
  0.19840E-02
 -0.12456E-01
  0.80539E-02
  0.76354E-02
 -0.13703E-01
  0.99674E-02
  0.50833E-02
  0.49778E-02
  0.32647E-02
  0.22914E-02
  0.82838E-03
  0.12736E-02
  0.26655E-02
  0.20854E-02
  0.33153E-02
  0.61406E-02
  0.75221E-02
  0.49649E-02
 -0.27248E-01
 -0.26161E-01
 -0.26999E-01
  0.70306E-02
  0.74774E-02
 -0.98431E-02
 -0.78879E-02
 -0.20992E-01
  0.18407E-01
  0.18357E-01
  0.17997E-01
  0.37264E-02
  0.43181E-02
 -0.62126E-02
 -0.68309E-02
 -0.45173E-02
  0.57029E-02
  0.47383E-02
  0.51699E-02
  0.27180E-02
 -0.38578E-02
 -0.10034E-02
 -0.35353E-02
 -0.11142E-02
 -0.23709E-02
  0.58615E-03
  0.25452E-02
  0.36479E-02
  0.71125E-03
  0.53600E-02
  0.34617E-02
 -0.71154E-03
 -0.33388E-02
 -0.58267E-02
  0.12779E-01
  0.12396E-01
  0.31578E-02
  0.41391E-02
 -0.42165E-02
 -0.64586E-02
 -0.40499E-02
 -0.55711E-02
  0.42214E-02
  0.16521E-01
  0.16300E-01
  0.16139E-01
  0.34627E-02
 -0.23553E-01
 -0.21721E-01
  0.45346E-02
 -0.12800E-01
  0.44561E-02
  0.42927E-02
  0.45109E-02
  0.24742E-02
  0.22630E-02
 -0.36036E-04
  0.79167E-02
  0.15305E-01
 -0.24726E-02
 -0.22383E-02
  0.17431E-02
 -0.50874E-02
  0.79330E-02
  0.12033E-01
  0.11730E-01
  0.84704E-02
 -0.13999E-01
  0.22329E-01
  0.67823E-02
  0.12959E-01
  0.57969E-02
  0.61575E-02
  0.66519E-02
  0.66320E-02
  0.13964E-01
  0.49272E-02
  0.53299E-02
 -0.41015E-02
  0.56986E-02
  0.38026E-02
  0.13250E-01
  0.13340E-01
  0.13323E-01
 -0.13179E-01
 -0.26185E-02
 -0.68099E-02
  0.43633E-02
  0.43761E-02
  0.49070E-02
  0.16352E-01
  0.15708E-01
  0.22395E-03
  0.41334E-02
 -0.17792E-01
  0.85263E-02
  0.90448E-02
  0.79207E-02
  0.13431E-01
  0.10935E-01
  0.97778E-02
  0.12702E-01
  0.14569E-01
  0.16127E-01
 -0.62331E-02
  0.21642E-02
  0.77718E-02
  0.15758E-01
 -0.59071E-01
 -0.58049E-01
 -0.54673E-01
  0.71408E-02
  0.72457E-02
  0.15708E-01
 -0.72489E-02
 -0.67896E-02
  0.46540E-02
  0.41693E-02
  0.40765E-02
  0.38793E-02
 -0.11367E-01
 -0.10586E-01
  0.44926E-02
  0.34471E-02
  0.77460E-02
  0.74605E-02
  0.89559E-02
  0.45260E-02
  0.48716E-02
  0.14578E-01
  0.15968E-01
  0.16022E-01
  0.15951E-01
  0.16088E-01
  0.16147E-01
  0.16124E-01
  0.16148E-01
  0.16096E-01
  0.71363E-02
  0.51326E-02
 -0.71874E-02
  0.41916E-02
  0.39218E-02
  0.39941E-02
  0.96220E-02
  0.44700E-02
  0.41865E-02
  0.50815E-02
  0.14038E-01
  0.28015E-02
 -0.96799E-02
  0.10786E-01
  0.27647E-02
 -0.61797E-02
 -0.78986E-02
  0.62942E-02
  0.69015E-02
  0.16127E-01
  0.16167E-01
 -0.55103E-01
 -0.10344E-01
 -0.78343E-02
 -0.85785E-02
  0.47936E-02
  0.14921E-01
 -0.99293E-02
 -0.62954E-02
 -0.59218E-02
 -0.28626E-02
 -0.33646E-02
 -0.84034E-02
 -0.47147E-01
 -0.39642E-01
  0.14757E-01
  0.14925E-01
  0.48327E-02
  0.37176E-02
  0.12259E-01
  0.47085E-02
  0.69752E-02
  0.13477E-01
  0.15964E-01
  0.55048E-02
  0.16170E-01
  0.44427E-02
  0.82487E-02
  0.10998E-01
  0.99818E-02
  0.50167E-02
  0.52305E-02
  0.59177E-02
  0.69756E-02
  0.67359E-02
  0.74487E-02
  0.71476E-02
 -0.19777E-01
  0.56943E-02
  0.58897E-02
  0.14773E-01
 -0.20153E-01
  0.78501E-02
  0.48738E-02
  0.52077E-02
  0.25714E-02
  0.14283E-01
  0.79442E-02
  0.83791E-02
  0.86296E-02
  0.88928E-02
  0.12918E-01
 -0.36456E-03
  0.12400E-01
  0.48907E-02
 -0.27006E-01
  0.15274E-01
  0.13894E-01
  0.15971E-01
  0.56049E-02
  0.59784E-02
  0.43275E-02
  0.51323E-02
  0.55412E-02
  0.53612E-02
  0.56979E-02
  0.52988E-02
  0.54742E-02
  0.59111E-02
  0.14130E-01
  0.18583E-01
  0.20157E-01
  0.17201E-01
  0.49107E-02
  0.74087E-02
  0.11697E-01
  0.12417E-01
  0.12876E-01
 -0.95649E-02
 -0.46189E-02
 -0.59825E-01
 -0.13581E-01
 -0.10572E-02
 -0.13320E-01
  0.14386E-01
  0.39373E-02
  0.51223E-02
  0.73164E-02
 -0.15602E-04
  0.79847E-02
  0.21894E-01
 -0.12894E-01
  0.14386E-01
 -0.51451E-02
  0.21555E-01
  0.21947E-01
  0.19858E-01
  0.20554E-01
  0.22384E-01
  0.20587E-01
  0.19130E-01
 -0.61658E-02
  0.10102E-01
  0.91210E-02
  0.44378E-02
  0.13271E-01
  0.66479E-02
  0.82339E-02
  0.97182E-02
  0.39719E-02
  0.17968E-02
  0.10108E-01
 -0.15117E-01
 -0.59313E-02
 -0.51716E-01
 -0.49993E-01
 -0.42804E-01
 -0.56639E-01
 -0.33543E-01
  0.35929E-02
  0.13854E-01
  0.12834E-01
  0.15526E-01
  0.16544E-01
  0.18086E-01
  0.17018E-01
 -0.14216E-01
  0.39093E-03
  0.10830E-01
  0.69267E-02
  0.45718E-02
  0.14076E-01
  0.21738E-01
  0.67427E-02
 -0.98461E-02
  0.15196E-01
  0.13903E-01
  0.15015E-01
  0.14554E-01
 -0.25410E-01
  0.47451E-02
 -0.28023E-03
 -0.29850E-01
 -0.22026E-01
  0.15849E-01
  0.15720E-01
  0.15600E-01
  0.13338E-01
 -0.58957E-02
  0.29764E-02
  0.23907E-01
  0.24644E-01
  0.15888E-02
  0.17272E-01
  0.12774E-01
 -0.26449E-01
  0.40669E-02
  0.30898E-02
  0.83351E-03
 -0.14446E-02
 -0.52833E-03
  0.34631E-02
  0.78818E-02
  0.89638E-02
  0.83797E-02
  0.97221E-02
  0.91918E-02
  0.14886E-01
  0.16540E-01
  0.18195E-01
  0.18098E-01
 -0.54149E-02
 -0.10094E-01
 -0.11360E-01
  0.53326E-02
  0.51244E-02
  0.50409E-02
  0.54783E-02
  0.15877E-01
  0.53922E-02
 -0.20503E-01
 -0.66387E-02
 -0.67285E-02
 -0.12120E-01
 -0.87327E-02
  0.14041E-01
  0.13152E-01
  0.12926E-01
  0.13078E-01
  0.12828E-01
  0.13070E-01
  0.16699E-01
 -0.15025E-02
  0.87139E-03
  0.15703E-01
  0.15655E-01
  0.80451E-02
  0.16667E-02
  0.32180E-02
  0.15766E-01
  0.10064E-01
  0.11417E-01
 -0.95341E-02
  0.16232E-02
 -0.71968E-02
 -0.15468E-01
  0.16060E-01
 -0.41263E-02
  0.64609E-02
  0.62677E-02
  0.66994E-02
  0.72619E-02
 -0.32917E-02
  0.60011E-02
  0.14143E-01
  0.14234E-01
  0.22128E-02
  0.68177E-02
  0.17139E-01
 -0.72666E-02
  0.18447E-01
  0.19878E-01
 -0.12879E-01
  0.14058E-01
  0.15011E-01
  0.15277E-01
  0.15521E-01
  0.45348E-02
  0.16261E-01
  0.50485E-02
  0.13697E-01
  0.12690E-01
  0.12718E-01
 -0.15736E-01
 -0.17808E-01
  0.80513E-03
 -0.83102E-03
  0.30616E-02
  0.57276E-02
  0.60634E-02
 -0.10481E-02
  0.75815E-02
  0.88784E-02
  0.17320E-01
  0.71437E-02
  0.69068E-02
  0.11469E-01
  0.11090E-01
  0.12200E-01
  0.12498E-01
  0.13181E-01
  0.55444E-02
  0.90995E-02
  0.63379E-02
  0.62435E-02
  0.75488E-02
  0.51638E-02
  0.47395E-02
 -0.50572E-02
 -0.62019E-02
  0.85584E-02
  0.76810E-02
  0.90354E-02
  0.98436E-02
  0.10223E-01
  0.73215E-03
  0.11710E-01
  0.87164E-02
  0.13334E-01
  0.13499E-01
  0.19857E-01
 -0.91619E-02
  0.25874E-02
  0.46038E-02
  0.16115E-01
 -0.14179E-01
  0.52495E-02
  0.54494E-02
  0.56938E-02
  0.52443E-02
  0.54287E-02
  0.48158E-02
  0.48925E-02
  0.49534E-02
 -0.61685E-01
 -0.35870E-02
  0.65943E-02
  0.16190E-01
  0.15884E-01
  0.16285E-01
  0.87736E-02
  0.49691E-02
  0.40475E-02
  0.15968E-01
  0.13612E-01
  0.93255E-02
  0.92638E-02
  0.89195E-02
 -0.18487E-02
 -0.44105E-02
 -0.90701E-02
 -0.60710E-02
  0.18905E-01
 -0.72417E-02
 -0.98759E-02
 -0.39834E-02
 -0.31022E-02
 -0.32509E-02
  0.48896E-02
  0.54513E-02
 -0.33096E-02
 -0.16466E-02
 -0.20870E-02
  0.69914E-02
  0.61672E-02
  0.74170E-02
  0.66303E-02
  0.14809E-01
  0.21669E-02
  0.74053E-02
  0.17721E-01
  0.54556E-02
  0.55300E-02
  0.15875E-02
 -0.71391E-03
 -0.13133E-02
 -0.13622E-02
 -0.19931E-02
  0.52193E-02
  0.39798E-02
  0.40358E-02
  0.41177E-02
  0.50600E-02
  0.66710E-02
  0.71940E-02
  0.82707E-02
  0.41819E-02
  0.32173E-02
 -0.23132E-01
  0.37794E-02
  0.33594E-02
  0.11757E-01
  0.73378E-02
 -0.28725E-02
  0.10376E-03
  0.54042E-02
 -0.14069E-01
 -0.12140E-02
  0.59234E-02
  0.65607E-02
  0.42649E-03
 -0.38774E-02
 -0.39461E-03
  0.60422E-02
 -0.83840E-02
 -0.79855E-02
 -0.69026E-03
  0.43509E-02
 -0.35419E-02
  0.10175E-01
 -0.75975E-02
  0.55561E-02
 -0.32900E-02
 -0.62377E-02
 -0.39981E-02
  0.61438E-02
 -0.13201E-01
 -0.96889E-02
 -0.43797E-02
  0.79847E-02
  0.13278E-02
 -0.89659E-02
 -0.25842E-01
  0.69056E-02
  0.79800E-02
  0.11728E-01
  0.21782E-02
  0.34818E-02
 -0.86257E-02
 -0.23253E-02
  0.50318E-02
  0.38468E-02
 -0.44655E-02
  0.13277E-02
  0.83868E-02
  0.57825E-02
 -0.16871E-02
 -0.22673E-01
 -0.22603E-01
  0.40347E-02
 -0.95969E-04
  0.55244E-02
  0.43362E-02
 -0.67539E-02
  0.30646E-02
 -0.49537E-02
 -0.18284E-01
  0.70998E-02
 -0.19936E-02
  0.15821E-01
  0.12285E-02
 -0.24410E-01
  0.12647E-01
 -0.52951E-02
  0.46902E-02
  0.38937E-02
  0.88984E-02
 -0.75829E-02
  0.51755E-02
  0.16160E-01
 -0.69661E-02
  0.19150E-01
  0.88335E-02
  0.24214E-01
  0.19325E-01
  0.77687E-02
  0.17696E-01
 -0.17390E-01
 -0.20063E-01
  0.96170E-02
  0.12667E-01
  0.77317E-02
  0.16950E-01
 -0.65072E-02
  0.72631E-02
 -0.41940E-01
 -0.50865E-01
 -0.10771E-01
  0.12479E-01
 -0.58002E-02
 -0.52740E-01
 -0.10259E-01
  0.21880E-02
  0.40046E-02
 -0.47576E-01
 -0.47420E-01