# vtk DataFile Version 2.0
Unstructured Grid UFVM-ECOMOD
ASCII
DATASET UNSTRUCTURED_GRID
 POINTS         1724  float
  0.00000E+00  0.00000E+00  0.00000E+00
  0.40000E+01  0.00000E+00  0.00000E+00
  0.40000E+01  0.20000E+01  0.00000E+00
  0.00000E+00  0.20000E+01  0.00000E+00
  0.15750E+01  0.10287E+01  0.00000E+00
  0.15677E+01  0.97091E+00  0.00000E+00
  0.15461E+01  0.91674E+00  0.00000E+00
  0.15118E+01  0.86961E+00  0.00000E+00
  0.14667E+01  0.83248E+00  0.00000E+00
  0.14138E+01  0.80767E+00  0.00000E+00
  0.13563E+01  0.79675E+00  0.00000E+00
  0.12979E+01  0.80041E+00  0.00000E+00
  0.12423E+01  0.81842E+00  0.00000E+00
  0.11929E+01  0.84963E+00  0.00000E+00
  0.11529E+01  0.89210E+00  0.00000E+00
  0.11247E+01  0.94315E+00  0.00000E+00
  0.11102E+01  0.99958E+00  0.00000E+00
  0.11102E+01  0.10578E+01  0.00000E+00
  0.11247E+01  0.11143E+01  0.00000E+00
  0.11529E+01  0.11653E+01  0.00000E+00
  0.11929E+01  0.12078E+01  0.00000E+00
  0.12423E+01  0.12390E+01  0.00000E+00
  0.12979E+01  0.12570E+01  0.00000E+00
  0.13563E+01  0.12607E+01  0.00000E+00
  0.14138E+01  0.12497E+01  0.00000E+00
  0.14667E+01  0.12249E+01  0.00000E+00
  0.15118E+01  0.11878E+01  0.00000E+00
  0.15461E+01  0.11407E+01  0.00000E+00
  0.15677E+01  0.10865E+01  0.00000E+00
  0.10000E+00  0.00000E+00  0.00000E+00
  0.20000E+00  0.00000E+00  0.00000E+00
  0.30000E+00  0.00000E+00  0.00000E+00
  0.40000E+00  0.00000E+00  0.00000E+00
  0.50000E+00  0.00000E+00  0.00000E+00
  0.60000E+00  0.00000E+00  0.00000E+00
  0.70000E+00  0.00000E+00  0.00000E+00
  0.80000E+00  0.00000E+00  0.00000E+00
  0.90000E+00  0.00000E+00  0.00000E+00
  0.10000E+01  0.00000E+00  0.00000E+00
  0.11000E+01  0.00000E+00  0.00000E+00
  0.12000E+01  0.00000E+00  0.00000E+00
  0.13000E+01  0.00000E+00  0.00000E+00
  0.14000E+01  0.00000E+00  0.00000E+00
  0.15000E+01  0.00000E+00  0.00000E+00
  0.16000E+01  0.00000E+00  0.00000E+00
  0.17000E+01  0.00000E+00  0.00000E+00
  0.18000E+01  0.00000E+00  0.00000E+00
  0.19000E+01  0.00000E+00  0.00000E+00
  0.20000E+01  0.00000E+00  0.00000E+00
  0.21000E+01  0.00000E+00  0.00000E+00
  0.22000E+01  0.00000E+00  0.00000E+00
  0.23000E+01  0.00000E+00  0.00000E+00
  0.24000E+01  0.00000E+00  0.00000E+00
  0.25000E+01  0.00000E+00  0.00000E+00
  0.26000E+01  0.00000E+00  0.00000E+00
  0.27000E+01  0.00000E+00  0.00000E+00
  0.28000E+01  0.00000E+00  0.00000E+00
  0.29000E+01  0.00000E+00  0.00000E+00
  0.30000E+01  0.00000E+00  0.00000E+00
  0.31000E+01  0.00000E+00  0.00000E+00
  0.32000E+01  0.00000E+00  0.00000E+00
  0.33000E+01  0.00000E+00  0.00000E+00
  0.34000E+01  0.00000E+00  0.00000E+00
  0.35000E+01  0.00000E+00  0.00000E+00
  0.36000E+01  0.00000E+00  0.00000E+00
  0.37000E+01  0.00000E+00  0.00000E+00
  0.38000E+01  0.00000E+00  0.00000E+00
  0.39000E+01  0.00000E+00  0.00000E+00
  0.40000E+01  0.10000E+00  0.00000E+00
  0.40000E+01  0.20000E+00  0.00000E+00
  0.40000E+01  0.30000E+00  0.00000E+00
  0.40000E+01  0.40000E+00  0.00000E+00
  0.40000E+01  0.50000E+00  0.00000E+00
  0.40000E+01  0.60000E+00  0.00000E+00
  0.40000E+01  0.70000E+00  0.00000E+00
  0.40000E+01  0.80000E+00  0.00000E+00
  0.40000E+01  0.90000E+00  0.00000E+00
  0.40000E+01  0.10000E+01  0.00000E+00
  0.40000E+01  0.11000E+01  0.00000E+00
  0.40000E+01  0.12000E+01  0.00000E+00
  0.40000E+01  0.13000E+01  0.00000E+00
  0.40000E+01  0.14000E+01  0.00000E+00
  0.40000E+01  0.15000E+01  0.00000E+00
  0.40000E+01  0.16000E+01  0.00000E+00
  0.40000E+01  0.17000E+01  0.00000E+00
  0.40000E+01  0.18000E+01  0.00000E+00
  0.40000E+01  0.19000E+01  0.00000E+00
  0.39000E+01  0.20000E+01  0.00000E+00
  0.38000E+01  0.20000E+01  0.00000E+00
  0.37000E+01  0.20000E+01  0.00000E+00
  0.36000E+01  0.20000E+01  0.00000E+00
  0.35000E+01  0.20000E+01  0.00000E+00
  0.34000E+01  0.20000E+01  0.00000E+00
  0.33000E+01  0.20000E+01  0.00000E+00
  0.32000E+01  0.20000E+01  0.00000E+00
  0.31000E+01  0.20000E+01  0.00000E+00
  0.30000E+01  0.20000E+01  0.00000E+00
  0.29000E+01  0.20000E+01  0.00000E+00
  0.28000E+01  0.20000E+01  0.00000E+00
  0.27000E+01  0.20000E+01  0.00000E+00
  0.26000E+01  0.20000E+01  0.00000E+00
  0.25000E+01  0.20000E+01  0.00000E+00
  0.24000E+01  0.20000E+01  0.00000E+00
  0.23000E+01  0.20000E+01  0.00000E+00
  0.22000E+01  0.20000E+01  0.00000E+00
  0.21000E+01  0.20000E+01  0.00000E+00
  0.20000E+01  0.20000E+01  0.00000E+00
  0.19000E+01  0.20000E+01  0.00000E+00
  0.18000E+01  0.20000E+01  0.00000E+00
  0.17000E+01  0.20000E+01  0.00000E+00
  0.16000E+01  0.20000E+01  0.00000E+00
  0.15000E+01  0.20000E+01  0.00000E+00
  0.14000E+01  0.20000E+01  0.00000E+00
  0.13000E+01  0.20000E+01  0.00000E+00
  0.12000E+01  0.20000E+01  0.00000E+00
  0.11000E+01  0.20000E+01  0.00000E+00
  0.10000E+01  0.20000E+01  0.00000E+00
  0.90000E+00  0.20000E+01  0.00000E+00
  0.80000E+00  0.20000E+01  0.00000E+00
  0.70000E+00  0.20000E+01  0.00000E+00
  0.60000E+00  0.20000E+01  0.00000E+00
  0.50000E+00  0.20000E+01  0.00000E+00
  0.40000E+00  0.20000E+01  0.00000E+00
  0.30000E+00  0.20000E+01  0.00000E+00
  0.20000E+00  0.20000E+01  0.00000E+00
  0.10000E+00  0.20000E+01  0.00000E+00
  0.00000E+00  0.19000E+01  0.00000E+00
  0.00000E+00  0.18000E+01  0.00000E+00
  0.00000E+00  0.17000E+01  0.00000E+00
  0.00000E+00  0.16000E+01  0.00000E+00
  0.00000E+00  0.15000E+01  0.00000E+00
  0.00000E+00  0.14000E+01  0.00000E+00
  0.00000E+00  0.13000E+01  0.00000E+00
  0.00000E+00  0.12000E+01  0.00000E+00
  0.00000E+00  0.11000E+01  0.00000E+00
  0.00000E+00  0.10000E+01  0.00000E+00
  0.00000E+00  0.90000E+00  0.00000E+00
  0.00000E+00  0.80000E+00  0.00000E+00
  0.00000E+00  0.70000E+00  0.00000E+00
  0.00000E+00  0.60000E+00  0.00000E+00
  0.00000E+00  0.50000E+00  0.00000E+00
  0.00000E+00  0.40000E+00  0.00000E+00
  0.00000E+00  0.30000E+00  0.00000E+00
  0.00000E+00  0.20000E+00  0.00000E+00
  0.00000E+00  0.10000E+00  0.00000E+00
  0.15713E+01  0.99981E+00  0.00000E+00
  0.15569E+01  0.94382E+00  0.00000E+00
  0.15290E+01  0.89318E+00  0.00000E+00
  0.14892E+01  0.85104E+00  0.00000E+00
  0.14402E+01  0.82007E+00  0.00000E+00
  0.13850E+01  0.80221E+00  0.00000E+00
  0.13271E+01  0.79858E+00  0.00000E+00
  0.12701E+01  0.80941E+00  0.00000E+00
  0.12176E+01  0.83402E+00  0.00000E+00
  0.11729E+01  0.87086E+00  0.00000E+00
  0.11388E+01  0.91762E+00  0.00000E+00
  0.11175E+01  0.97136E+00  0.00000E+00
  0.11102E+01  0.10287E+01  0.00000E+00
  0.11175E+01  0.10860E+01  0.00000E+00
  0.11388E+01  0.11398E+01  0.00000E+00
  0.11729E+01  0.11865E+01  0.00000E+00
  0.12176E+01  0.12234E+01  0.00000E+00
  0.12701E+01  0.12480E+01  0.00000E+00
  0.13271E+01  0.12588E+01  0.00000E+00
  0.13850E+01  0.12552E+01  0.00000E+00
  0.14402E+01  0.12373E+01  0.00000E+00
  0.14892E+01  0.12064E+01  0.00000E+00
  0.15290E+01  0.11642E+01  0.00000E+00
  0.15569E+01  0.11136E+01  0.00000E+00
  0.15713E+01  0.10576E+01  0.00000E+00
  0.15994E+01  0.10133E+01  0.00000E+00
  0.15863E+01  0.11089E+01  0.00000E+00
  0.25478E+01  0.10053E+00  0.00000E+00
  0.25434E+01  0.19142E+01  0.00000E+00
  0.11238E+01  0.89266E+00  0.00000E+00
  0.11061E+01  0.11423E+01  0.00000E+00
  0.15575E+01  0.89126E+00  0.00000E+00
  0.10894E+01  0.97917E+00  0.00000E+00
  0.15393E+01  0.11910E+01  0.00000E+00
  0.11627E+01  0.12175E+01  0.00000E+00
  0.14962E+01  0.82262E+00  0.00000E+00
  0.29512E+01  0.95010E-01  0.00000E+00
  0.29494E+01  0.19117E+01  0.00000E+00
  0.39186E+01  0.10466E+01  0.00000E+00
  0.11913E+01  0.82197E+00  0.00000E+00
  0.12788E+01  0.78594E+00  0.00000E+00
  0.21500E+01  0.86600E-01  0.00000E+00
  0.21472E+01  0.19005E+01  0.00000E+00
  0.14041E+01  0.78007E+00  0.00000E+00
  0.14641E+01  0.12550E+01  0.00000E+00
  0.13764E+01  0.12826E+01  0.00000E+00
  0.99450E-01  0.63780E+00  0.00000E+00
  0.92450E-01  0.13422E+01  0.00000E+00
  0.12473E+01  0.12677E+01  0.00000E+00
  0.65677E+00  0.19154E+01  0.00000E+00
  0.86110E-01  0.10467E+01  0.00000E+00
  0.75000E+00  0.86600E-01  0.00000E+00
  0.33379E+01  0.88030E-01  0.00000E+00
  0.33490E+01  0.19201E+01  0.00000E+00
  0.18500E+01  0.86600E-01  0.00000E+00
  0.18441E+01  0.19006E+01  0.00000E+00
  0.38922E+01  0.64055E+00  0.00000E+00
  0.39154E+01  0.13500E+01  0.00000E+00
  0.10564E+01  0.85180E-01  0.00000E+00
  0.94817E+00  0.19249E+01  0.00000E+00
  0.15421E+01  0.85450E-01  0.00000E+00
  0.15479E+01  0.19161E+01  0.00000E+00
  0.12386E+01  0.19130E+01  0.00000E+00
  0.45294E+00  0.85030E-01  0.00000E+00
  0.86890E-01  0.16531E+01  0.00000E+00
  0.36495E+01  0.78620E-01  0.00000E+00
  0.36510E+01  0.19107E+01  0.00000E+00
  0.10846E+01  0.10423E+01  0.00000E+00
  0.15860E+01  0.94842E+00  0.00000E+00
  0.13392E+01  0.77093E+00  0.00000E+00
  0.13108E+01  0.12864E+01  0.00000E+00
  0.87300E-01  0.35008E+00  0.00000E+00
  0.34468E+00  0.19176E+01  0.00000E+00
  0.39135E+01  0.16499E+01  0.00000E+00
  0.39252E+01  0.34254E+00  0.00000E+00
  0.13680E+01  0.88360E-01  0.00000E+00
  0.88350E-01  0.84594E+00  0.00000E+00
  0.23513E+01  0.77830E-01  0.00000E+00
  0.23488E+01  0.19154E+01  0.00000E+00
  0.27481E+01  0.80910E-01  0.00000E+00
  0.31480E+01  0.84140E-01  0.00000E+00
  0.31513E+01  0.19149E+01  0.00000E+00
  0.27502E+01  0.19198E+01  0.00000E+00
  0.39134E+01  0.85000E+00  0.00000E+00
  0.25071E+00  0.86200E-01  0.00000E+00
  0.91130E-01  0.18412E+01  0.00000E+00
  0.38461E+01  0.84360E-01  0.00000E+00
  0.38408E+01  0.19092E+01  0.00000E+00
  0.97440E-01  0.15849E+00  0.00000E+00
  0.15988E+01  0.10458E+01  0.00000E+00
  0.16261E+01  0.10305E+01  0.00000E+00
  0.16281E+01  0.99836E+00  0.00000E+00
  0.16554E+01  0.10148E+01  0.00000E+00
  0.16578E+01  0.98164E+00  0.00000E+00
  0.16863E+01  0.99914E+00  0.00000E+00
  0.16884E+01  0.96239E+00  0.00000E+00
  0.17222E+01  0.98417E+00  0.00000E+00
  0.17231E+01  0.93952E+00  0.00000E+00
  0.17605E+01  0.96435E+00  0.00000E+00
  0.17576E+01  0.10098E+01  0.00000E+00
  0.17991E+01  0.98970E+00  0.00000E+00
  0.17625E+01  0.91931E+00  0.00000E+00
[...]
 POINT_DATA         1724
  
 SCALARS WL      float 1
 LOOKUP_TABLE default
  0.21214E-01
  0.73522E-02
 -0.24876E-03
  0.34547E-01
 -0.42949E-01
 -0.34159E-01
 -0.19410E-01
 -0.93363E-02
 -0.84353E-02
 -0.55282E-02
 -0.41667E-02
 -0.76393E-02
 -0.11622E-03
  0.10142E-01
  0.25960E-01
  0.37202E-01
  0.43933E-01
  0.44075E-01
  0.37387E-01
  0.25078E-01
  0.58240E-02
 -0.17000E-01
 -0.41779E-01
 -0.65715E-01
 -0.62091E-01
 -0.43327E-01
 -0.42173E-01
 -0.42507E-01
 -0.43238E-01
  0.21007E-01
  0.20621E-01
  0.20067E-01
  0.19364E-01
  0.18486E-01
  0.17433E-01
  0.16254E-01
  0.15032E-01
  0.13710E-01
  0.12550E-01
  0.11963E-01
  0.11845E-01
  0.12436E-01
  0.13609E-01
  0.14322E-01
  0.14814E-01
  0.15023E-01
  0.15096E-01
  0.15276E-01
  0.15146E-01
  0.15031E-01
  0.14667E-01
  0.14273E-01
  0.13723E-01
  0.13654E-01
  0.14064E-01
  0.15278E-01
  0.17179E-01
  0.19453E-01
  0.22224E-01
  0.24634E-01
  0.26349E-01
  0.27429E-01
  0.27438E-01
  0.26855E-01
  0.24988E-01
  0.22172E-01
  0.18335E-01
  0.12279E-01
  0.00000E+00
  0.00000E+00
  0.00000E+00
  0.00000E+00
  0.00000E+00
  0.00000E+00
  0.00000E+00
  0.00000E+00
  0.00000E+00
  0.00000E+00
  0.00000E+00
  0.00000E+00
  0.00000E+00
  0.00000E+00
  0.00000E+00
  0.00000E+00
  0.00000E+00
  0.00000E+00
  0.00000E+00
 -0.73658E-03
 -0.11580E-02
 -0.20032E-03
  0.14753E-02
  0.34558E-02
  0.55399E-02
  0.67964E-02
  0.72672E-02
  0.69110E-02
  0.56694E-02
  0.44171E-02
  0.39564E-02
  0.42120E-02
  0.47412E-02
  0.55269E-02
  0.63719E-02
  0.70656E-02
  0.74735E-02
  0.75170E-02
  0.70298E-02
  0.63399E-02
  0.56867E-02
  0.52126E-02
  0.53205E-02
  0.62874E-02
  0.80748E-02
  0.10509E-01
  0.13286E-01
  0.16117E-01
  0.18845E-01
  0.21410E-01
  0.23666E-01
  0.25708E-01
  0.27540E-01
  0.29281E-01
  0.30924E-01
  0.32334E-01
  0.33479E-01
  0.34262E-01
  0.34483E-01
  0.34232E-01
  0.33824E-01
  0.33196E-01
  0.32466E-01
  0.31396E-01
  0.30323E-01
  0.29136E-01
  0.28015E-01
  0.26940E-01
  0.25943E-01
  0.25050E-01
  0.24180E-01
  0.23453E-01
  0.22814E-01
  0.22273E-01
  0.21838E-01
  0.21516E-01
  0.21307E-01
 -0.40512E-01
 -0.26918E-01
 -0.12271E-01
 -0.83396E-02
 -0.76678E-02
 -0.44709E-02
 -0.64448E-02
 -0.66355E-02
  0.34471E-02
  0.18593E-01
  0.32274E-01
  0.41806E-01
  0.44758E-01
  0.42019E-01
  0.32273E-01
  0.15825E-01
 -0.45304E-02
 -0.28650E-01
 -0.55412E-01
 -0.68818E-01
 -0.50583E-01
 -0.43173E-01
 -0.41611E-01
 -0.42878E-01
 -0.43551E-01
 -0.39650E-01
 -0.41772E-01
  0.14234E-01
  0.53200E-02
  0.30555E-01
  0.34866E-01
 -0.15012E-01
  0.42741E-01
 -0.40742E-01
  0.14163E-01
 -0.92381E-02
  0.20819E-01
  0.47696E-02
 -0.10586E-02
  0.88784E-02
 -0.57840E-02
  0.14900E-01
  0.75874E-02
 -0.46120E-02
 -0.45473E-01
 -0.63033E-01
  0.23702E-01
  0.31082E-01
 -0.18148E-01
  0.26635E-01
  0.27634E-01
  0.15763E-01
  0.26658E-01
  0.62310E-02
  0.14963E-01
  0.56803E-02
 -0.12550E-01
  0.46035E-02
  0.12399E-01
  0.20209E-01
  0.14191E-01
  0.53383E-02
  0.12011E-01
  0.19002E-01
  0.33537E-01
  0.22914E-01
  0.77943E-03
  0.44301E-01
 -0.28774E-01
 -0.42587E-02
 -0.42756E-01
  0.21916E-01
  0.31740E-01
  0.14104E-02
  0.20775E-02
  0.13080E-01
  0.25560E-01
  0.14110E-01
  0.68911E-02
  0.16416E-01
  0.25007E-01
  0.73403E-02
  0.40027E-02
 -0.92182E-02
  0.20431E-01
  0.34166E-01
  0.14937E-01
 -0.84819E-03
  0.21215E-01
 -0.41539E-01
 -0.38218E-01
 -0.36752E-01
 -0.37191E-01
 -0.35003E-01
 -0.36488E-01
 -0.33637E-01
 -0.35529E-01
 -0.31616E-01
 -0.33402E-01
 -0.36509E-01
 -0.33088E-01
 -0.28451E-01
 -0.34665E-01
 -0.29753E-01
 -0.28781E-01
 -0.23770E-01
 -0.20772E-01
 -0.17005E-01
 -0.19986E-01
 -0.14433E-01
 -0.17845E-01
 -0.14139E-01
 -0.17714E-01
 -0.16093E-01
 -0.19847E-01
 -0.19866E-01
 -0.11057E-01
 -0.23822E-01
 -0.24079E-01
 -0.17557E-01
 -0.20260E-01
 -0.20313E-01
 -0.12439E-01
 -0.13212E-01
 -0.18259E-01
 -0.10142E-01
 -0.11407E-01
 -0.47907E-02
 -0.35916E-02
 -0.83107E-03
  0.48209E-03
  0.17252E-02
  0.37693E-03
  0.53427E-03
  0.37292E-02
  0.41112E-03
 -0.30627E-02
 -0.54222E-02
  0.52831E-03
 -0.61751E-02
  0.15027E-02
 -0.49253E-02
 -0.13342E-01
 -0.10920E-01
 -0.26890E-02
 -0.18593E-01
 -0.14187E-01
 -0.19536E-01
 -0.25396E-01
 -0.14022E-01
 -0.15896E-01
 -0.20834E-01
 -0.24423E-01
 -0.16944E-01
 -0.20948E-01
 -0.10966E-01
 -0.13958E-01
 -0.48363E-02
 -0.10546E-01
 -0.92897E-02
 -0.96522E-02
 -0.48432E-02
  0.19883E-03
  0.38815E-02
  0.88713E-02
  0.98735E-02
  0.14559E-01
 -0.58437E-02
 -0.36183E-02
  0.13480E-01
  0.15235E-01
 -0.25365E-01
  0.13365E-01
  0.12756E-01
  0.11904E-01
  0.10670E-01
  0.11295E-01
  0.87529E-02
  0.86034E-02
  0.62264E-02
  0.74291E-02
  0.56097E-02
 -0.96764E-02
  0.22917E-03
 -0.55123E-03
  0.67406E-02
  0.76061E-02
  0.11436E-01
 -0.21177E-01
  0.73476E-02
  0.62986E-02
 -0.17172E-01
  0.35644E-02
 -0.15378E-02
  0.82305E-03
 -0.76832E-03
  0.27537E-02
  0.81663E-02
  0.77041E-02
  0.57680E-02
  0.78440E-02
  0.11557E-01
  0.12724E-01
  0.76015E-02
  0.60171E-02
  0.85578E-02
  0.98715E-02
  0.10902E-01
  0.11681E-01
  0.12830E-01
  0.12216E-01
  0.14239E-01
  0.13917E-01
  0.15896E-01
  0.15999E-01
  0.17851E-01
  0.17176E-01
  0.18902E-01
  0.19927E-01
  0.20673E-01
  0.22091E-01
  0.22368E-01
  0.24092E-01
  0.23898E-01
  0.25784E-01
  0.25139E-01
  0.27113E-01
  0.26166E-01
  0.28081E-01
  0.26950E-01
  0.28662E-01
  0.25252E-01
  0.27487E-01
  0.28997E-01
  0.27820E-01
  0.29173E-01
  0.30393E-01
  0.30330E-01
  0.31527E-01
  0.31232E-01
  0.32339E-01
  0.31814E-01
  0.32733E-01
  0.32057E-01
  0.32711E-01
  0.31962E-01
  0.32293E-01
  0.31554E-01
  0.31482E-01
  0.30872E-01
  0.30364E-01
  0.31422E-01
  0.30867E-01
  0.29982E-01
  0.29066E-01
  0.22223E-01
  0.28140E-01
  0.26740E-01
  0.28972E-01
  0.29878E-01
  0.27762E-01
  0.27674E-01
  0.26152E-01
  0.25737E-01
  0.24144E-01
  0.23192E-01
  0.21675E-01
  0.19995E-01
  0.27094E-01
  0.25729E-01
  0.17858E-01
  0.33002E-01
  0.29036E-01
  0.29986E-01
  0.27734E-01
  0.29224E-01
  0.33311E-01
  0.18809E-01
  0.16260E-01
  0.24901E-01
  0.29293E-01
  0.30245E-01
  0.26101E-01
  0.24886E-01
  0.13352E-01
  0.15603E-01
  0.12388E-01
  0.21546E-01
  0.25946E-01
  0.27381E-01
  0.30677E-01
  0.30951E-01
  0.31097E-01
 -0.37927E-01
  0.24379E-01
  0.23707E-01
  0.23040E-01
  0.22560E-01
  0.21772E-01
  0.89107E-02
  0.29737E-01
  0.21498E-01
  0.22166E-02
 -0.11629E-01
 -0.15722E-01
  0.21052E-01
  0.12443E-01
  0.78431E-02
  0.85918E-02
  0.34216E-02
  0.50527E-02
 -0.24759E-03
  0.21671E-02
 -0.28025E-02
 -0.63731E-02
 -0.96005E-02
 -0.42111E-02
 -0.91929E-02
 -0.15676E-01
 -0.13844E-01
 -0.79450E-02
 -0.11131E-01
 -0.61000E-02
 -0.76032E-02
 -0.12820E-01
 -0.81333E-02
 -0.13056E-01
 -0.81225E-02
 -0.39780E-02
 -0.35372E-02
 -0.26058E-03
  0.60416E-03
  0.28227E-02
  0.38094E-02
  0.52514E-02
  0.63428E-02
  0.48582E-02
  0.72061E-02
  0.79994E-02
  0.89265E-02
  0.91217E-02
  0.99028E-02
  0.79669E-02
 -0.24901E-02
  0.10960E-01
  0.14686E-01
  0.16118E-01
  0.96017E-02
  0.10373E-01
  0.25338E-01
  0.32569E-02
  0.20661E-01
  0.20874E-01
  0.40755E-02
  0.10418E-01
  0.10819E-01
  0.10067E-01
  0.94860E-02
  0.90378E-02
  0.79069E-02
 -0.18872E-01
 -0.18488E-01
  0.72177E-02
  0.56957E-02
 -0.37506E-02
 -0.24535E-03
 -0.28924E-02
  0.28562E-01
  0.68447E-02
  0.92939E-02
 -0.20235E-01
 -0.57805E-02
  0.82422E-02
  0.12225E-01
  0.13325E-01
  0.16014E-01
  0.16664E-01
  0.18372E-01
  0.18580E-01
  0.16655E-01
  0.18362E-01
  0.16174E-01
  0.19584E-01
  0.17908E-01
  0.15475E-01
  0.12985E-01
  0.12062E-01
  0.89114E-02
  0.77358E-02
  0.11094E-01
  0.62530E-02
  0.27888E-02
  0.10224E-01
  0.46231E-02
  0.58384E-02
  0.26695E-02
  0.31040E-02
 -0.73497E-02
  0.97081E-02
 -0.12350E-02
  0.53434E-03
  0.22235E-01
  0.21357E-01
 -0.10380E-01
 -0.34281E-02
  0.91279E-02
  0.14155E-01
  0.18012E-01
  0.16943E-01
  0.94510E-02
 -0.16773E-01
 -0.21005E-01
  0.12816E-01
  0.11973E-01
  0.17584E-01
  0.12949E-02
  0.29191E-01
  0.30336E-01
  0.25263E-02
  0.42806E-02
 -0.66565E-03
  0.13639E-01
  0.56883E-03
 -0.29848E-02
 -0.24627E-01
 -0.24751E-01
 -0.57427E-02
  0.31399E-01
  0.31246E-01
 -0.37294E-02
 -0.74407E-02
  0.31390E-02
 -0.22020E-02
 -0.47282E-02
 -0.11132E-02
 -0.18725E-01
 -0.30226E-01
 -0.34934E-02
  0.12191E-01
  0.13182E-01
 -0.60085E-02
 -0.80138E-03
  0.19741E-01
  0.19807E-01
  0.40519E-02
  0.13063E-01
  0.82108E-02
  0.19390E-01
 -0.12663E-01
 -0.41868E-02
 -0.97106E-02
 -0.37237E-02
 -0.18535E-01
 -0.29926E-02
  0.89216E-02
  0.89730E-02
 -0.12875E-01
  0.35614E-02
  0.44829E-02
  0.22041E-01
  0.14285E-01
 -0.27747E-01
  0.33785E-02
  0.21341E-01
  0.59793E-03
  0.31041E-01
  0.30880E-01
  0.30754E-01
  0.30301E-01
  0.30430E-01
  0.30225E-01
  0.29538E-01
  0.12640E-01
  0.27854E-01
 -0.92994E-02
 -0.52612E-02
  0.14530E-01
  0.42459E-02
  0.50092E-02
  0.15347E-02
  0.33589E-02
 -0.25771E-01
  0.29942E-01
  0.31044E-01
  0.19711E-01
  0.18464E-01
  0.18657E-01
  0.22890E-01
 -0.30731E-01
 -0.30749E-01
  0.27282E-02
 -0.79647E-02
 -0.11171E-01
 -0.10047E-01
 -0.61070E-02
 -0.92195E-02
 -0.54618E-02
 -0.70139E-02
  0.22477E-02
 -0.32565E-02
 -0.36634E-02
  0.20119E-01
  0.18879E-01
  0.17461E-01
  0.17572E-01
  0.16185E-01
  0.16263E-01
  0.86914E-02
 -0.27853E-01
 -0.33971E-02
  0.31547E-01
  0.31815E-01
  0.16374E-01
 -0.19322E-01
  0.32801E-02
  0.18810E-02
  0.17169E-02
  0.26786E-02
  0.12491E-01
  0.13036E-01
  0.13705E-01
  0.95128E-03
  0.17187E-01
  0.15813E-01
 -0.31755E-01
 -0.15736E-01
  0.12278E-01
  0.29483E-01
  0.28621E-01
  0.28737E-01
  0.27736E-01
 -0.11902E-01
  0.14488E-01
 -0.35598E-01
 -0.36556E-01
 -0.31373E-01
 -0.37343E-01
  0.22639E-01
  0.23519E-01
  0.50345E-02
 -0.10181E-01
 -0.15119E-01
  0.96498E-02
  0.50916E-02
 -0.15904E-02
  0.13689E-01
  0.13858E-01
  0.14471E-01
  0.14463E-01
 -0.37071E-01
  0.31080E-01
  0.27145E-01
  0.26326E-01
  0.69196E-02
  0.13111E-01
  0.23711E-01
  0.67069E-02
  0.53094E-02
  0.13776E-01
 -0.11865E-01
 -0.11830E-01
  0.11345E-01
  0.12406E-01
  0.14976E-01
  0.15048E-01
 -0.27494E-01
 -0.35440E-01
 -0.37687E-01
 -0.14363E-01
 -0.85365E-02
 -0.59305E-02
  0.15016E-01
  0.11083E-01
  0.11824E-01
 -0.10102E-02
  0.42053E-02
  0.30232E-03
  0.31928E-01
  0.32309E-01
  0.14184E-01
 -0.34703E-03
  0.36800E-04
  0.44854E-03
  0.73077E-02
  0.30772E-01
  0.31838E-01
  0.29542E-01
  0.46002E-02
  0.46140E-02
  0.59706E-02
  0.30757E-01
 -0.93156E-02
 -0.40025E-02
 -0.97244E-02
  0.31269E-01
  0.25474E-01
  0.24624E-01
  0.23525E-01
  0.39772E-02
  0.42787E-02
 -0.99471E-02
  0.93883E-02
  0.38379E-02
  0.12389E-03
  0.27356E-02
 -0.95698E-03
 -0.35308E-01
 -0.39560E-01
 -0.39381E-01
  0.27565E-01
  0.26652E-01
  0.26941E-01
  0.25870E-01
  0.62722E-02
  0.20618E-01
  0.20778E-01
  0.61391E-02
  0.22680E-01
  0.21454E-01
  0.23990E-01
 -0.12572E-01
 -0.12390E-01
  0.14919E-01
  0.14826E-01
  0.13982E-01
  0.14428E-01
  0.19206E-01
  0.15122E-01
  0.17414E-01
  0.14801E-01
  0.17066E-01
 -0.18965E-01
  0.27210E-01
  0.14636E-01
  0.12186E-01
 -0.39373E-01
 -0.39780E-01
 -0.21429E-02
  0.50557E-03
  0.32344E-01
  0.11560E-02
  0.16778E-01
 -0.29253E-01
 -0.33393E-01
 -0.44638E-01
 -0.36110E-01
 -0.25824E-01
 -0.25543E-01
 -0.23718E-02
  0.23044E-03
  0.19072E-01
  0.19749E-01
  0.19966E-01
  0.19564E-01
  0.19885E-01
  0.18885E-01
  0.18346E-01
  0.13050E-01
  0.13872E-01
  0.14672E-01
  0.14467E-01
  0.25553E-01
  0.24808E-01
  0.11198E-01
  0.12555E-01
  0.11521E-01
 -0.98264E-02
  0.17048E-01
  0.19329E-02
 -0.59092E-02
  0.20042E-01
  0.37505E-02
  0.31443E-02
  0.52957E-02
  0.13559E-01
 -0.25004E-01
  0.23671E-02
  0.36401E-02
 -0.39366E-01
 -0.35558E-01
 -0.22929E-01
 -0.15443E-01
 -0.11704E-01
 -0.20005E-01
 -0.64351E-02
 -0.10434E-01
 -0.17012E-03
 -0.21482E-02
  0.64986E-02
  0.61421E-02
  0.13327E-01
  0.12267E-01
  0.17707E-01
  0.19711E-01
  0.22395E-01
  0.24903E-01
  0.26154E-01
  0.28862E-01
  0.28166E-01
  0.32020E-01
  0.31425E-01
  0.34123E-01
  0.32933E-01
  0.34969E-01
  0.36555E-01
  0.36750E-01
  0.38661E-01
  0.37983E-01
  0.39978E-01
  0.38588E-01
  0.36880E-01
  0.36975E-01
  0.38579E-01
  0.36428E-01
  0.37238E-01
  0.35357E-01
  0.35637E-01
  0.37473E-01
  0.35296E-01
  0.33633E-01
  0.32705E-01
  0.37083E-01
  0.35601E-01
  0.31432E-01
  0.29988E-01
  0.30846E-01
  0.27629E-01
  0.26898E-01
  0.24381E-01
  0.38455E-01
  0.30843E-01
  0.33548E-01
  0.22037E-01
  0.20177E-01
  0.22389E-01
  0.18881E-01
  0.15581E-01
  0.15294E-01
  0.11218E-01
  0.12027E-01
  0.77357E-02
  0.93927E-02
  0.55760E-02
  0.76023E-02
  0.16156E-01
  0.31930E-01
  0.32278E-01
  0.24725E-01
  0.34697E-01
  0.33484E-01
  0.39322E-01
  0.35417E-01
  0.26774E-01
  0.10341E-01
  0.21398E-01
  0.20912E-01
  0.57623E-03
  0.12401E-01
 -0.38733E-01
 -0.86888E-02
 -0.14987E-01
  0.81685E-02
 -0.39654E-01
  0.12714E-01
  0.12159E-01
  0.19641E-01
  0.20309E-01
  0.50774E-02
  0.41736E-03
  0.80487E-03
 -0.29548E-02
  0.12755E-01
 -0.35680E-02
  0.60013E-02
  0.38533E-01
  0.81565E-02
  0.18041E-01
  0.30840E-02
 -0.16299E-02
  0.17688E-01
  0.66225E-03
 -0.43760E-02
 -0.43602E-02
 -0.39606E-01
  0.22477E-02
  0.35270E-01
  0.40145E-01
 -0.68241E-02
 -0.42724E-01
 -0.55866E-02
  0.23892E-01
  0.19228E-01
  0.13806E-01
  0.32797E-01
  0.17222E-01
  0.16749E-01
  0.11487E-01
 -0.12003E-01
 -0.16082E-01
 -0.16675E-01
  0.22227E-01
  0.26662E-01
 -0.43457E-01
  0.15413E-01
  0.31234E-01
 -0.19130E-01
 -0.16925E-01
 -0.59407E-02
  0.62784E-02
  0.26690E-02
  0.59548E-03
  0.29139E-01
  0.23176E-01
  0.22485E-01
  0.19352E-01
  0.19137E-01
  0.23072E-01
  0.22429E-01
  0.34453E-01
  0.65856E-02
  0.57187E-02
  0.39133E-02
  0.24196E-01
  0.26684E-01
 -0.41390E-02
  0.12848E-01
  0.12542E-01
 -0.17089E-01
 -0.31513E-02
  0.14614E-01
  0.14811E-01
 -0.17433E-01
 -0.14036E-01
 -0.40451E-01
 -0.39218E-01
  0.15540E-01
  0.13910E-01
  0.14172E-01
  0.33162E-01
  0.31843E-01
  0.32494E-01
  0.17311E-01
  0.83001E-02
  0.21596E-02
 -0.23005E-01
 -0.26787E-01
  0.11571E-01
  0.38117E-01
  0.30481E-01
  0.29046E-01
  0.14776E-01
 -0.48230E-01
  0.33128E-01
  0.14939E-01
  0.15549E-01
  0.10806E-01
  0.14622E-01
  0.17699E-01
  0.12797E-01
  0.12410E-01
  0.11013E-01
  0.17596E-01
  0.14906E-01
  0.14957E-01
  0.10097E-01
  0.90361E-02
  0.18828E-01
 -0.41850E-01
 -0.20776E-01
 -0.22063E-01
 -0.17326E-01
 -0.22151E-01
  0.97590E-02
 -0.11923E-01
  0.25163E-01
 -0.17824E-01
  0.96340E-02
  0.80362E-02
  0.10140E-01
  0.35489E-01
  0.56811E-02
  0.90401E-02
  0.23032E-01
 -0.42159E-02
 -0.71802E-02
  0.67940E-02
 -0.87758E-02
 -0.41515E-01
  0.29431E-01
  0.30387E-01
  0.40895E-01
  0.41961E-01
  0.40444E-01
  0.41859E-01
  0.40248E-01
 -0.29852E-02
  0.22996E-01
  0.40628E-02
  0.44213E-01
  0.13408E-01
  0.13114E-01
  0.23857E-01
  0.25747E-01
  0.12084E-01
  0.30239E-02
  0.10526E-01
 -0.18353E-03
 -0.72848E-02
  0.15067E-01
  0.15063E-01
 -0.88308E-02
 -0.12374E-01
 -0.12156E-01
 -0.11115E-01
  0.14801E-01
  0.17604E-01
  0.16048E-01
  0.15265E-01
  0.29738E-01
  0.43006E-01
  0.48208E-02
  0.40165E-02
  0.38443E-02
 -0.33457E-02
  0.39295E-02
  0.42847E-02
  0.16150E-01
 -0.46425E-02
 -0.28905E-01
  0.36131E-02
 -0.10834E-02
 -0.59405E-02
 -0.53831E-01
 -0.36237E-01
 -0.38901E-01
  0.31150E-01
  0.32719E-01
  0.32423E-01
  0.79473E-03
 -0.35771E-01
 -0.30271E-01
 -0.39159E-02
 -0.67197E-02
  0.24001E-01
  0.24602E-01
  0.18537E-01
  0.34245E-01
 -0.56712E-02
 -0.13216E-01
 -0.15520E-01
  0.21228E-01
  0.21726E-01
  0.22806E-01
  0.20552E-01
  0.22370E-01
  0.22213E-01
  0.24677E-01
  0.25281E-01
  0.31006E-01
  0.30946E-01
  0.30943E-01
  0.30536E-01
  0.13971E-01
  0.30248E-01
  0.29512E-01
  0.30922E-01
  0.31101E-01
  0.28559E-01
  0.30458E-01
  0.29705E-01
 -0.13133E-01
  0.73955E-02
  0.74907E-02
  0.69264E-02
  0.78380E-02
  0.80723E-02
  0.72650E-02
  0.88144E-02
  0.84040E-02
  0.79818E-02
  0.62721E-02
  0.65099E-02
  0.33043E-02
  0.26543E-01
  0.27281E-01
  0.28552E-01
  0.28773E-01
  0.29741E-01
  0.29675E-01
  0.30066E-01
 -0.54095E-02
 -0.88895E-02
  0.13669E-01
  0.27947E-01
  0.29964E-01
  0.30315E-01
 -0.18000E-01
 -0.10717E-01
 -0.17246E-02
 -0.71511E-02
  0.24324E-01
  0.28561E-01
  0.28654E-01
  0.23511E-01
  0.13831E-01
  0.89963E-02
  0.94686E-02
  0.69170E-02
  0.67385E-02
  0.42461E-02
  0.32265E-02
  0.10136E-02
  0.25565E-02
  0.64591E-02
  0.67517E-02
  0.28120E-01
  0.48191E-02
  0.37343E-02
  0.38889E-02
  0.21363E-02
  0.27799E-02
  0.44297E-02
  0.37316E-02
  0.14737E-02
 -0.12864E-01
  0.22592E-01
  0.24741E-01
  0.25977E-01
  0.11507E-01
  0.65773E-02
  0.59297E-02
  0.67752E-02
  0.60421E-02
  0.70574E-02
  0.60946E-02
  0.46675E-02
  0.73985E-02
  0.73453E-02
  0.16977E-01
  0.16845E-01
  0.17848E-01
  0.17069E-01
  0.17938E-01
  0.18057E-01
  0.18784E-01
 -0.70318E-02
  0.23390E-01
 -0.47578E-01
  0.12339E-02
  0.41803E-02
 -0.83694E-02
  0.14990E-01
  0.44878E-02
  0.42246E-02
  0.45137E-02
  0.56332E-02
  0.57815E-02
  0.30982E-01
 -0.33483E-01
  0.39183E-02
  0.35159E-01
  0.13380E-01
 -0.15903E-03
  0.77386E-02
  0.18898E-01
  0.50336E-02
  0.13655E-01
 -0.43997E-03
  0.18449E-01
  0.40725E-02
  0.10652E-01
  0.72523E-02
  0.10296E-01
 -0.18561E-01
 -0.64757E-02
 -0.55767E-02
 -0.67688E-02
 -0.32765E-01
  0.79094E-02
  0.17717E-02
  0.19081E-01
  0.96487E-02
  0.18516E-01
  0.21563E-01
  0.17943E-01
  0.20470E-01
  0.23905E-01
  0.22116E-01
  0.19703E-01
  0.20823E-01
  0.22733E-01
  0.19801E-01
  0.20338E-01
  0.14443E-01
  0.13517E-01
 -0.28215E-01
  0.93310E-02
  0.99385E-02
  0.32940E-01
  0.32373E-01
  0.33419E-01
  0.32793E-01
  0.33667E-01
  0.62522E-02
  0.23164E-01
  0.61324E-02
  0.47135E-02
  0.14398E-01
 -0.79228E-03
  0.21522E-01
  0.70857E-02
  0.26094E-01
 -0.10645E-01
 -0.52555E-02
 -0.61670E-02
  0.44175E-02
  0.37337E-02
  0.59620E-02
  0.25248E-02
  0.27071E-02
  0.12024E-02
  0.22814E-02
  0.91344E-03
 -0.48788E-04
 -0.13545E-03
  0.13468E-02
  0.25693E-02
  0.29907E-02
  0.43839E-02
  0.44290E-02
  0.25885E-01
  0.19532E-01
  0.15009E-01
  0.90683E-02
  0.86740E-02
 -0.11107E-01
  0.46783E-03
 -0.71670E-02
 -0.23797E-01
 -0.17326E-01
  0.43253E-02
  0.21790E-02
  0.64502E-02
  0.40330E-02
 -0.41773E-02
  0.32299E-01
 -0.75235E-02
 -0.12642E-01
  0.42919E-03
  0.85739E-02
  0.20943E-01
  0.35061E-01
  0.71339E-02
  0.14376E-01
 -0.41695E-02
  0.15182E-01
  0.18252E-02
 -0.21114E-01
 -0.70076E-02
  0.44634E-02
  0.42736E-02
  0.18697E-01
 -0.41393E-02
  0.14860E-01
 -0.24779E-01
 -0.39522E-01
 -0.40161E-01
  0.53363E-02
 -0.14502E-01
  0.34345E-01
  0.94664E-02
  0.14034E-01
 -0.69135E-03
  0.26454E-01
  0.33659E-01
  0.23230E-01
 -0.38994E-01
  0.45227E-02
  0.70792E-02
  0.13843E-01
 -0.13039E-01
  0.30837E-03
  0.17332E-01
  0.12292E-01
 -0.37830E-01
  0.30314E-02
  0.19566E-01
  0.20285E-02
  0.40960E-01
  0.52991E-02
 -0.18266E-01
  0.22400E-01
 -0.56170E-02
  0.16209E-01
  0.81962E-02
  0.16992E-01
  0.29387E-02
  0.15423E-01
 -0.10740E-01
 -0.33794E-02
  0.14943E-01
  0.27535E-01
 -0.34639E-02
 -0.18544E-03
  0.30210E-01
 -0.24785E-01
 -0.27231E-01
  0.30814E-04
  0.21954E-01
 -0.55331E-01
 -0.61868E-01
  0.33179E-02
  0.19907E-01
 -0.14087E-01
 -0.22433E-01
 -0.41515E-01
  0.20628E-01
  0.72716E-02
  0.31077E-01
  0.19378E-01
 -0.22362E-03
 -0.19475E-01
  0.19346E-01
  0.12143E-01
  0.12395E-02
  0.17579E-01
  0.30667E-01
  0.14360E-01
  0.19752E-01
  0.30563E-01
  0.17999E-01
  0.44012E-02
  0.20531E-01
 -0.40300E-01
 -0.21131E-01
  0.15056E-01
 -0.13049E-01
  0.28687E-01
  0.11971E-01
  0.57083E-02
  0.20026E-01
  0.20599E-01
  0.51651E-02
  0.24631E-01
  0.24245E-01
  0.47051E-02
  0.20825E-01
  0.51136E-02
  0.17819E-01
 -0.85867E-02
  0.93171E-02
  0.27503E-01
  0.13120E-01
 -0.42835E-01
  0.19339E-01
  0.30124E-01
  0.21979E-02
 -0.34937E-01
  0.33876E-01
  0.15539E-01
  0.11746E-01
  0.10034E-01
  0.31481E-01
 -0.10859E-01
  0.20879E-01
  0.26448E-01
 -0.18873E-03
  0.19866E-01
  0.26212E-01
  0.17420E-01
  0.36271E-01
  0.33824E-01
  0.22961E-01
 -0.91265E-02
  0.21239E-01
  0.13564E-01
 -0.40045E-02
 -0.23960E-01