# vtk DataFile Version 2.0
Unstructured Grid UFVM-ECOMOD
ASCII
DATASET UNSTRUCTURED_GRID
 POINTS         1724  float
  0.00000E+00  0.00000E+00  0.00000E+00
  0.40000E+01  0.00000E+00  0.00000E+00
  0.40000E+01  0.20000E+01  0.00000E+00
  0.00000E+00  0.20000E+01  0.00000E+00
  0.15750E+01  0.10287E+01  0.00000E+00
  0.15677E+01  0.97091E+00  0.00000E+00
  0.15461E+01  0.91674E+00  0.00000E+00
  0.15118E+01  0.86961E+00  0.00000E+00
  0.14667E+01  0.83248E+00  0.00000E+00
  0.14138E+01  0.80767E+00  0.00000E+00
  0.13563E+01  0.79675E+00  0.00000E+00
  0.12979E+01  0.80041E+00  0.00000E+00
  0.12423E+01  0.81842E+00  0.00000E+00
  0.11929E+01  0.84963E+00  0.00000E+00
  0.11529E+01  0.89210E+00  0.00000E+00
  0.11247E+01  0.94315E+00  0.00000E+00
  0.11102E+01  0.99958E+00  0.00000E+00
  0.11102E+01  0.10578E+01  0.00000E+00
  0.11247E+01  0.11143E+01  0.00000E+00
  0.11529E+01  0.11653E+01  0.00000E+00
  0.11929E+01  0.12078E+01  0.00000E+00
  0.12423E+01  0.12390E+01  0.00000E+00
  0.12979E+01  0.12570E+01  0.00000E+00
  0.13563E+01  0.12607E+01  0.00000E+00
  0.14138E+01  0.12497E+01  0.00000E+00
  0.14667E+01  0.12249E+01  0.00000E+00
  0.15118E+01  0.11878E+01  0.00000E+00
  0.15461E+01  0.11407E+01  0.00000E+00
  0.15677E+01  0.10865E+01  0.00000E+00
  0.10000E+00  0.00000E+00  0.00000E+00
  0.20000E+00  0.00000E+00  0.00000E+00
  0.30000E+00  0.00000E+00  0.00000E+00
  0.40000E+00  0.00000E+00  0.00000E+00
  0.50000E+00  0.00000E+00  0.00000E+00
  0.60000E+00  0.00000E+00  0.00000E+00
  0.70000E+00  0.00000E+00  0.00000E+00
  0.80000E+00  0.00000E+00  0.00000E+00
  0.90000E+00  0.00000E+00  0.00000E+00
  0.10000E+01  0.00000E+00  0.00000E+00
  0.11000E+01  0.00000E+00  0.00000E+00
  0.12000E+01  0.00000E+00  0.00000E+00
  0.13000E+01  0.00000E+00  0.00000E+00
  0.14000E+01  0.00000E+00  0.00000E+00
  0.15000E+01  0.00000E+00  0.00000E+00
  0.16000E+01  0.00000E+00  0.00000E+00
  0.17000E+01  0.00000E+00  0.00000E+00
  0.18000E+01  0.00000E+00  0.00000E+00
  0.19000E+01  0.00000E+00  0.00000E+00
  0.20000E+01  0.00000E+00  0.00000E+00
  0.21000E+01  0.00000E+00  0.00000E+00
  0.22000E+01  0.00000E+00  0.00000E+00
  0.23000E+01  0.00000E+00  0.00000E+00
  0.24000E+01  0.00000E+00  0.00000E+00
  0.25000E+01  0.00000E+00  0.00000E+00
  0.26000E+01  0.00000E+00  0.00000E+00
  0.27000E+01  0.00000E+00  0.00000E+00
  0.28000E+01  0.00000E+00  0.00000E+00
  0.29000E+01  0.00000E+00  0.00000E+00
  0.30000E+01  0.00000E+00  0.00000E+00
  0.31000E+01  0.00000E+00  0.00000E+00
  0.32000E+01  0.00000E+00  0.00000E+00
  0.33000E+01  0.00000E+00  0.00000E+00
  0.34000E+01  0.00000E+00  0.00000E+00
  0.35000E+01  0.00000E+00  0.00000E+00
  0.36000E+01  0.00000E+00  0.00000E+00
  0.37000E+01  0.00000E+00  0.00000E+00
  0.38000E+01  0.00000E+00  0.00000E+00
  0.39000E+01  0.00000E+00  0.00000E+00
  0.40000E+01  0.10000E+00  0.00000E+00
  0.40000E+01  0.20000E+00  0.00000E+00
  0.40000E+01  0.30000E+00  0.00000E+00
  0.40000E+01  0.40000E+00  0.00000E+00
  0.40000E+01  0.50000E+00  0.00000E+00
  0.40000E+01  0.60000E+00  0.00000E+00
  0.40000E+01  0.70000E+00  0.00000E+00
  0.40000E+01  0.80000E+00  0.00000E+00
  0.40000E+01  0.90000E+00  0.00000E+00
  0.40000E+01  0.10000E+01  0.00000E+00
  0.40000E+01  0.11000E+01  0.00000E+00
  0.40000E+01  0.12000E+01  0.00000E+00
  0.40000E+01  0.13000E+01  0.00000E+00
  0.40000E+01  0.14000E+01  0.00000E+00
  0.40000E+01  0.15000E+01  0.00000E+00
  0.40000E+01  0.16000E+01  0.00000E+00
  0.40000E+01  0.17000E+01  0.00000E+00
  0.40000E+01  0.18000E+01  0.00000E+00
  0.40000E+01  0.19000E+01  0.00000E+00
  0.39000E+01  0.20000E+01  0.00000E+00
  0.38000E+01  0.20000E+01  0.00000E+00
  0.37000E+01  0.20000E+01  0.00000E+00
  0.36000E+01  0.20000E+01  0.00000E+00
  0.35000E+01  0.20000E+01  0.00000E+00
  0.34000E+01  0.20000E+01  0.00000E+00
  0.33000E+01  0.20000E+01  0.00000E+00
  0.32000E+01  0.20000E+01  0.00000E+00
  0.31000E+01  0.20000E+01  0.00000E+00
  0.30000E+01  0.20000E+01  0.00000E+00
  0.29000E+01  0.20000E+01  0.00000E+00
  0.28000E+01  0.20000E+01  0.00000E+00
  0.27000E+01  0.20000E+01  0.00000E+00
  0.26000E+01  0.20000E+01  0.00000E+00
  0.25000E+01  0.20000E+01  0.00000E+00
  0.24000E+01  0.20000E+01  0.00000E+00
  0.23000E+01  0.20000E+01  0.00000E+00
  0.22000E+01  0.20000E+01  0.00000E+00
  0.21000E+01  0.20000E+01  0.00000E+00
  0.20000E+01  0.20000E+01  0.00000E+00
  0.19000E+01  0.20000E+01  0.00000E+00
  0.18000E+01  0.20000E+01  0.00000E+00
  0.17000E+01  0.20000E+01  0.00000E+00
  0.16000E+01  0.20000E+01  0.00000E+00
  0.15000E+01  0.20000E+01  0.00000E+00
  0.14000E+01  0.20000E+01  0.00000E+00
  0.13000E+01  0.20000E+01  0.00000E+00
  0.12000E+01  0.20000E+01  0.00000E+00
  0.11000E+01  0.20000E+01  0.00000E+00
  0.10000E+01  0.20000E+01  0.00000E+00
  0.90000E+00  0.20000E+01  0.00000E+00
  0.80000E+00  0.20000E+01  0.00000E+00
  0.70000E+00  0.20000E+01  0.00000E+00
  0.60000E+00  0.20000E+01  0.00000E+00
  0.50000E+00  0.20000E+01  0.00000E+00
  0.40000E+00  0.20000E+01  0.00000E+00
  0.30000E+00  0.20000E+01  0.00000E+00
  0.20000E+00  0.20000E+01  0.00000E+00
  0.10000E+00  0.20000E+01  0.00000E+00
  0.00000E+00  0.19000E+01  0.00000E+00
  0.00000E+00  0.18000E+01  0.00000E+00
  0.00000E+00  0.17000E+01  0.00000E+00
  0.00000E+00  0.16000E+01  0.00000E+00
  0.00000E+00  0.15000E+01  0.00000E+00
  0.00000E+00  0.14000E+01  0.00000E+00
  0.00000E+00  0.13000E+01  0.00000E+00
  0.00000E+00  0.12000E+01  0.00000E+00
  0.00000E+00  0.11000E+01  0.00000E+00
  0.00000E+00  0.10000E+01  0.00000E+00
  0.00000E+00  0.90000E+00  0.00000E+00
  0.00000E+00  0.80000E+00  0.00000E+00
  0.00000E+00  0.70000E+00  0.00000E+00
  0.00000E+00  0.60000E+00  0.00000E+00
  0.00000E+00  0.50000E+00  0.00000E+00
  0.00000E+00  0.40000E+00  0.00000E+00
  0.00000E+00  0.30000E+00  0.00000E+00
  0.00000E+00  0.20000E+00  0.00000E+00
  0.00000E+00  0.10000E+00  0.00000E+00
  0.15713E+01  0.99981E+00  0.00000E+00
  0.15569E+01  0.94382E+00  0.00000E+00
  0.15290E+01  0.89318E+00  0.00000E+00
  0.14892E+01  0.85104E+00  0.00000E+00
  0.14402E+01  0.82007E+00  0.00000E+00
  0.13850E+01  0.80221E+00  0.00000E+00
  0.13271E+01  0.79858E+00  0.00000E+00
  0.12701E+01  0.80941E+00  0.00000E+00
  0.12176E+01  0.83402E+00  0.00000E+00
  0.11729E+01  0.87086E+00  0.00000E+00
  0.11388E+01  0.91762E+00  0.00000E+00
  0.11175E+01  0.97136E+00  0.00000E+00
  0.11102E+01  0.10287E+01  0.00000E+00
  0.11175E+01  0.10860E+01  0.00000E+00
  0.11388E+01  0.11398E+01  0.00000E+00
  0.11729E+01  0.11865E+01  0.00000E+00
  0.12176E+01  0.12234E+01  0.00000E+00
  0.12701E+01  0.12480E+01  0.00000E+00
  0.13271E+01  0.12588E+01  0.00000E+00
  0.13850E+01  0.12552E+01  0.00000E+00
  0.14402E+01  0.12373E+01  0.00000E+00
  0.14892E+01  0.12064E+01  0.00000E+00
  0.15290E+01  0.11642E+01  0.00000E+00
  0.15569E+01  0.11136E+01  0.00000E+00
  0.15713E+01  0.10576E+01  0.00000E+00
  0.15994E+01  0.10133E+01  0.00000E+00
  0.15863E+01  0.11089E+01  0.00000E+00
  0.25478E+01  0.10053E+00  0.00000E+00
  0.25434E+01  0.19142E+01  0.00000E+00
  0.11238E+01  0.89266E+00  0.00000E+00
  0.11061E+01  0.11423E+01  0.00000E+00
  0.15575E+01  0.89126E+00  0.00000E+00
  0.10894E+01  0.97917E+00  0.00000E+00
  0.15393E+01  0.11910E+01  0.00000E+00
  0.11627E+01  0.12175E+01  0.00000E+00
  0.14962E+01  0.82262E+00  0.00000E+00
  0.29512E+01  0.95010E-01  0.00000E+00
  0.29494E+01  0.19117E+01  0.00000E+00
  0.39186E+01  0.10466E+01  0.00000E+00
  0.11913E+01  0.82197E+00  0.00000E+00
  0.12788E+01  0.78594E+00  0.00000E+00
  0.21500E+01  0.86600E-01  0.00000E+00
  0.21472E+01  0.19005E+01  0.00000E+00
  0.14041E+01  0.78007E+00  0.00000E+00
  0.14641E+01  0.12550E+01  0.00000E+00
  0.13764E+01  0.12826E+01  0.00000E+00
  0.99450E-01  0.63780E+00  0.00000E+00
  0.92450E-01  0.13422E+01  0.00000E+00
  0.12473E+01  0.12677E+01  0.00000E+00
  0.65677E+00  0.19154E+01  0.00000E+00
  0.86110E-01  0.10467E+01  0.00000E+00
  0.75000E+00  0.86600E-01  0.00000E+00
  0.33379E+01  0.88030E-01  0.00000E+00
  0.33490E+01  0.19201E+01  0.00000E+00
  0.18500E+01  0.86600E-01  0.00000E+00
  0.18441E+01  0.19006E+01  0.00000E+00
  0.38922E+01  0.64055E+00  0.00000E+00
  0.39154E+01  0.13500E+01  0.00000E+00
  0.10564E+01  0.85180E-01  0.00000E+00
  0.94817E+00  0.19249E+01  0.00000E+00
  0.15421E+01  0.85450E-01  0.00000E+00
  0.15479E+01  0.19161E+01  0.00000E+00
  0.12386E+01  0.19130E+01  0.00000E+00
  0.45294E+00  0.85030E-01  0.00000E+00
  0.86890E-01  0.16531E+01  0.00000E+00
  0.36495E+01  0.78620E-01  0.00000E+00
  0.36510E+01  0.19107E+01  0.00000E+00
  0.10846E+01  0.10423E+01  0.00000E+00
  0.15860E+01  0.94842E+00  0.00000E+00
  0.13392E+01  0.77093E+00  0.00000E+00
  0.13108E+01  0.12864E+01  0.00000E+00
  0.87300E-01  0.35008E+00  0.00000E+00
  0.34468E+00  0.19176E+01  0.00000E+00
  0.39135E+01  0.16499E+01  0.00000E+00
  0.39252E+01  0.34254E+00  0.00000E+00
  0.13680E+01  0.88360E-01  0.00000E+00
  0.88350E-01  0.84594E+00  0.00000E+00
  0.23513E+01  0.77830E-01  0.00000E+00
  0.23488E+01  0.19154E+01  0.00000E+00
  0.27481E+01  0.80910E-01  0.00000E+00
  0.31480E+01  0.84140E-01  0.00000E+00
  0.31513E+01  0.19149E+01  0.00000E+00
  0.27502E+01  0.19198E+01  0.00000E+00
  0.39134E+01  0.85000E+00  0.00000E+00
  0.25071E+00  0.86200E-01  0.00000E+00
  0.91130E-01  0.18412E+01  0.00000E+00
  0.38461E+01  0.84360E-01  0.00000E+00
  0.38408E+01  0.19092E+01  0.00000E+00
  0.97440E-01  0.15849E+00  0.00000E+00
  0.15988E+01  0.10458E+01  0.00000E+00
  0.16261E+01  0.10305E+01  0.00000E+00
  0.16281E+01  0.99836E+00  0.00000E+00
  0.16554E+01  0.10148E+01  0.00000E+00
  0.16578E+01  0.98164E+00  0.00000E+00
  0.16863E+01  0.99914E+00  0.00000E+00
  0.16884E+01  0.96239E+00  0.00000E+00
  0.17222E+01  0.98417E+00  0.00000E+00
  0.17231E+01  0.93952E+00  0.00000E+00
  0.17605E+01  0.96435E+00  0.00000E+00
  0.17576E+01  0.10098E+01  0.00000E+00
  0.17991E+01  0.98970E+00  0.00000E+00
  0.17625E+01  0.91931E+00  0.00000E+00
[...]
 POINT_DATA         1724
  
 SCALARS WL      float 1
 LOOKUP_TABLE default
  0.21371E-01
  0.68448E-02
 -0.19320E-03
  0.34692E-01
 -0.41484E-01
 -0.33925E-01
 -0.19867E-01
 -0.81245E-02
 -0.59726E-02
 -0.34456E-02
 -0.16094E-02
 -0.60403E-02
  0.17791E-03
  0.98751E-02
  0.25705E-01
  0.37047E-01
  0.43886E-01
  0.44139E-01
  0.37602E-01
  0.25487E-01
  0.65156E-02
 -0.15989E-01
 -0.40418E-01
 -0.64357E-01
 -0.65308E-01
 -0.46889E-01
 -0.44729E-01
 -0.43555E-01
 -0.42688E-01
  0.21151E-01
  0.20752E-01
  0.20186E-01
  0.19458E-01
  0.18530E-01
  0.17389E-01
  0.16065E-01
  0.14620E-01
  0.12965E-01
  0.11321E-01
  0.10201E-01
  0.95008E-02
  0.95690E-02
  0.10540E-01
  0.11365E-01
  0.12129E-01
  0.12601E-01
  0.12840E-01
  0.13110E-01
  0.13086E-01
  0.13093E-01
  0.12842E-01
  0.12504E-01
  0.11829E-01
  0.11425E-01
  0.11272E-01
  0.11767E-01
  0.12910E-01
  0.14504E-01
  0.16800E-01
  0.19106E-01
  0.21070E-01
  0.22654E-01
  0.23220E-01
  0.23216E-01
  0.21931E-01
  0.19619E-01
  0.16454E-01
  0.11288E-01
  0.00000E+00
  0.00000E+00
  0.00000E+00
  0.00000E+00
  0.00000E+00
  0.00000E+00
  0.00000E+00
  0.00000E+00
  0.00000E+00
  0.00000E+00
  0.00000E+00
  0.00000E+00
  0.00000E+00
  0.00000E+00
  0.00000E+00
  0.00000E+00
  0.00000E+00
  0.00000E+00
  0.00000E+00
 -0.49422E-03
 -0.35981E-03
  0.11888E-02
  0.33206E-02
  0.55873E-02
  0.78342E-02
  0.90725E-02
  0.93109E-02
  0.85264E-02
  0.69061E-02
  0.55081E-02
  0.52005E-02
  0.57676E-02
  0.67065E-02
  0.78412E-02
  0.88876E-02
  0.96345E-02
  0.99857E-02
  0.99215E-02
  0.93466E-02
  0.85812E-02
  0.78190E-02
  0.71651E-02
  0.70216E-02
  0.77028E-02
  0.92240E-02
  0.11452E-01
  0.14096E-01
  0.16866E-01
  0.19585E-01
  0.22168E-01
  0.24457E-01
  0.26530E-01
  0.28386E-01
  0.30136E-01
  0.31749E-01
  0.33078E-01
  0.34058E-01
  0.34608E-01
  0.34567E-01
  0.34199E-01
  0.33654E-01
  0.32856E-01
  0.32020E-01
  0.30844E-01
  0.29741E-01
  0.28597E-01
  0.27562E-01
  0.26599E-01
  0.25716E-01
  0.24922E-01
  0.24139E-01
  0.23477E-01
  0.22886E-01
  0.22380E-01
  0.21969E-01
  0.21663E-01
  0.21463E-01
 -0.39347E-01
 -0.27431E-01
 -0.12045E-01
 -0.61287E-02
 -0.55451E-02
 -0.20555E-02
 -0.41625E-02
 -0.57324E-02
  0.33187E-02
  0.18304E-01
  0.32065E-01
  0.41711E-01
  0.44764E-01
  0.42148E-01
  0.32580E-01
  0.16374E-01
 -0.36835E-02
 -0.27454E-01
 -0.53853E-01
 -0.68768E-01
 -0.55605E-01
 -0.45069E-01
 -0.43674E-01
 -0.43048E-01
 -0.42308E-01
 -0.38505E-01
 -0.41719E-01
  0.11704E-01
  0.74696E-02
  0.30330E-01
  0.35128E-01
 -0.15096E-01
  0.42665E-01
 -0.43231E-01
  0.14754E-01
 -0.69222E-02
  0.16021E-01
  0.58393E-02
 -0.21622E-02
  0.86764E-02
 -0.46636E-02
  0.12899E-01
  0.10044E-01
 -0.25205E-02
 -0.49901E-01
 -0.62082E-01
  0.23668E-01
  0.30546E-01
 -0.17098E-01
  0.27466E-01
  0.27198E-01
  0.15458E-01
  0.22322E-01
  0.85137E-02
  0.12666E-01
  0.78477E-02
 -0.13918E-01
  0.45246E-02
  0.10883E-01
  0.20955E-01
  0.11504E-01
  0.68961E-02
  0.12868E-01
  0.19068E-01
  0.33443E-01
  0.20082E-01
  0.24070E-02
  0.44328E-01
 -0.28985E-01
 -0.19644E-02
 -0.41348E-01
  0.22021E-01
  0.32518E-01
  0.16750E-02
  0.20005E-02
  0.10232E-01
  0.25341E-01
  0.12244E-01
  0.94259E-02
  0.12603E-01
  0.19944E-01
  0.91054E-02
  0.52997E-02
 -0.11331E-01
  0.20554E-01
  0.34378E-01
  0.13525E-01
 -0.31519E-03
  0.21352E-01
 -0.40357E-01
 -0.37395E-01
 -0.36047E-01
 -0.36636E-01
 -0.34680E-01
 -0.36218E-01
 -0.33466E-01
 -0.35290E-01
 -0.31359E-01
 -0.32963E-01
 -0.35960E-01
 -0.32331E-01
 -0.28055E-01
 -0.33603E-01
 -0.28721E-01
 -0.27464E-01
 -0.22773E-01
 -0.19612E-01
 -0.16215E-01
 -0.19517E-01
 -0.14160E-01
 -0.18222E-01
 -0.14762E-01
 -0.19224E-01
 -0.17811E-01
 -0.22198E-01
 -0.22021E-01
 -0.10392E-01
 -0.26331E-01
 -0.25330E-01
 -0.18949E-01
 -0.19953E-01
 -0.23173E-01
 -0.12618E-01
 -0.11756E-01
 -0.15735E-01
 -0.75511E-02
 -0.77334E-02
 -0.20800E-02
 -0.17350E-02
  0.81591E-03
  0.25740E-02
  0.29357E-02
  0.11341E-02
  0.95472E-03
  0.46014E-02
  0.63295E-03
 -0.36095E-02
 -0.58456E-02
  0.89181E-03
 -0.58964E-02
  0.21901E-02
 -0.38404E-02
 -0.12353E-01
 -0.88861E-02
 -0.11746E-02
 -0.16244E-01
 -0.11041E-01
 -0.15656E-01
 -0.24004E-01
 -0.10041E-01
 -0.11038E-01
 -0.16642E-01
 -0.27159E-01
 -0.20479E-01
 -0.23247E-01
 -0.15136E-01
 -0.15377E-01
 -0.85438E-02
 -0.66240E-02
 -0.63941E-02
 -0.52182E-02
 -0.57464E-02
 -0.49358E-02
 -0.77148E-03
  0.39803E-02
  0.55091E-02
  0.10336E-01
 -0.27187E-02
 -0.25190E-03
  0.96959E-02
  0.11925E-01
 -0.24956E-01
  0.10326E-01
  0.10588E-01
  0.95961E-02
  0.91564E-02
  0.10165E-01
  0.80794E-02
  0.85392E-02
  0.63609E-02
  0.70007E-02
  0.58016E-02
 -0.83367E-02
  0.52633E-03
  0.89023E-03
  0.66539E-02
  0.79845E-02
  0.78203E-02
 -0.20733E-01
  0.69804E-02
  0.63965E-02
 -0.16449E-01
  0.43640E-02
  0.71610E-03
  0.32743E-02
  0.25197E-02
  0.52109E-02
  0.76791E-02
  0.75882E-02
  0.61810E-02
  0.79508E-02
  0.10877E-01
  0.12341E-01
  0.67195E-02
  0.65766E-02
  0.87524E-02
  0.96521E-02
  0.10713E-01
  0.11102E-01
  0.12263E-01
  0.11970E-01
  0.13629E-01
  0.13553E-01
  0.15199E-01
  0.15494E-01
  0.17076E-01
  0.16216E-01
  0.17932E-01
  0.19112E-01
  0.19722E-01
  0.21270E-01
  0.21461E-01
  0.23297E-01
  0.23051E-01
  0.25031E-01
  0.24357E-01
  0.26416E-01
  0.25455E-01
  0.27443E-01
  0.26304E-01
  0.28079E-01
  0.24574E-01
  0.26898E-01
  0.28465E-01
  0.27277E-01
  0.28684E-01
  0.29945E-01
  0.29920E-01
  0.31184E-01
  0.30928E-01
  0.32117E-01
  0.31632E-01
  0.32642E-01
  0.32009E-01
  0.32757E-01
  0.32053E-01
  0.32471E-01
  0.31781E-01
  0.31792E-01
  0.31232E-01
  0.30796E-01
  0.31549E-01
  0.30587E-01
  0.30462E-01
  0.29603E-01
  0.21306E-01
  0.27632E-01
  0.26210E-01
  0.29553E-01
  0.30395E-01
  0.28382E-01
  0.28253E-01
  0.26797E-01
  0.26352E-01
  0.24812E-01
  0.23846E-01
  0.22369E-01
  0.20693E-01
  0.26594E-01
  0.25247E-01
  0.16733E-01
  0.32735E-01
  0.29656E-01
  0.30526E-01
  0.28269E-01
  0.28627E-01
  0.33435E-01
  0.19536E-01
  0.17011E-01
  0.25587E-01
  0.29943E-01
  0.30801E-01
  0.25642E-01
  0.24482E-01
  0.12365E-01
  0.16372E-01
  0.13202E-01
  0.22197E-01
  0.25265E-01
  0.26895E-01
  0.31086E-01
  0.31358E-01
  0.31324E-01
 -0.37437E-01
  0.23943E-01
  0.23375E-01
  0.22671E-01
  0.22311E-01
  0.21481E-01
  0.79932E-02
  0.30403E-01
  0.21332E-01
  0.51623E-02
 -0.11065E-01
 -0.15417E-01
  0.20395E-01
  0.13239E-01
  0.87251E-02
  0.94795E-02
  0.44012E-02
  0.60301E-02
  0.84187E-03
  0.32496E-02
 -0.15955E-02
 -0.51646E-02
 -0.82730E-02
 -0.28873E-02
 -0.77720E-02
 -0.14310E-01
 -0.12473E-01
 -0.64470E-02
 -0.97498E-02
 -0.45288E-02
 -0.61749E-02
 -0.11783E-01
 -0.69819E-02
 -0.12423E-01
 -0.72439E-02
 -0.26797E-02
 -0.24054E-02
  0.12333E-02
  0.20172E-02
  0.45509E-02
  0.54978E-02
  0.72179E-02
  0.83088E-02
  0.65258E-02
  0.91673E-02
  0.10183E-01
  0.11076E-01
  0.11415E-01
  0.12146E-01
  0.98860E-02
 -0.14204E-02
  0.11052E-01
  0.13565E-01
  0.15256E-01
  0.11911E-01
  0.12477E-01
  0.24941E-01
  0.51167E-02
  0.20452E-01
  0.20523E-01
  0.60726E-02
  0.12391E-01
  0.12498E-01
  0.11932E-01
  0.10938E-01
  0.10617E-01
  0.89597E-02
 -0.18518E-01
 -0.18469E-01
  0.85273E-02
  0.64018E-02
 -0.19330E-02
  0.91685E-03
 -0.24375E-02
  0.29289E-01
  0.75033E-02
  0.86445E-02
 -0.19998E-01
 -0.49055E-02
  0.89120E-02
  0.12789E-01
  0.13731E-01
  0.16243E-01
  0.16650E-01
  0.18095E-01
  0.18040E-01
  0.16423E-01
  0.17591E-01
  0.15738E-01
  0.18681E-01
  0.16900E-01
  0.14827E-01
  0.12806E-01
  0.11657E-01
  0.88703E-02
  0.73529E-02
  0.10412E-01
  0.54620E-02
  0.20803E-02
  0.92264E-02
  0.34688E-02
  0.63256E-02
  0.25948E-02
  0.34013E-02
 -0.63355E-02
  0.10997E-01
 -0.19113E-02
  0.51221E-03
  0.22096E-01
  0.21294E-01
 -0.11152E-01
 -0.17890E-02
  0.10021E-01
  0.14095E-01
  0.18754E-01
  0.15341E-01
  0.81876E-02
 -0.15604E-01
 -0.19713E-01
  0.99325E-02
  0.95658E-02
  0.16290E-01
  0.22791E-02
  0.29936E-01
  0.31004E-01
  0.43344E-02
  0.57879E-02
  0.24708E-03
  0.12324E-01
  0.50880E-03
 -0.41097E-02
 -0.25158E-01
 -0.25100E-01
 -0.62618E-02
  0.31602E-01
  0.31252E-01
 -0.36168E-02
 -0.96633E-02
  0.18517E-02
 -0.38867E-02
 -0.53278E-02
 -0.96884E-03
 -0.19840E-01
 -0.28815E-01
 -0.19027E-02
  0.11179E-01
  0.11792E-01
 -0.56007E-02
  0.11490E-03
  0.19471E-01
  0.19371E-01
  0.57890E-02
  0.10255E-01
  0.10530E-01
  0.17965E-01
 -0.11509E-01
 -0.25108E-02
 -0.77842E-02
 -0.13112E-02
 -0.18365E-01
 -0.41326E-02
  0.75287E-02
  0.10941E-01
 -0.11763E-01
  0.39139E-04
  0.65575E-02
  0.21993E-01
  0.12745E-01
 -0.27533E-01
  0.39926E-02
  0.21354E-01
  0.27239E-02
  0.31073E-01
  0.30696E-01
  0.30597E-01
  0.29963E-01
  0.30048E-01
  0.29912E-01
  0.29098E-01
  0.10115E-01
  0.28631E-01
 -0.64716E-02
 -0.24574E-02
  0.15064E-01
  0.55068E-02
  0.59492E-02
  0.23199E-02
  0.48046E-02
 -0.25443E-01
  0.30694E-01
  0.31698E-01
  0.19577E-01
  0.18107E-01
  0.18098E-01
  0.22763E-01
 -0.31855E-01
 -0.31924E-01
  0.46209E-02
 -0.94117E-02
 -0.14160E-01
 -0.71406E-02
 -0.36388E-02
 -0.69985E-02
 -0.35473E-02
 -0.53034E-02
  0.11740E-02
 -0.16755E-02
 -0.20579E-02
  0.19500E-01
  0.18124E-01
  0.16760E-01
  0.16653E-01
  0.15308E-01
  0.15155E-01
  0.73550E-02
 -0.27235E-01
  0.25602E-03
  0.31506E-01
  0.31974E-01
  0.15218E-01
 -0.18726E-01
  0.39973E-02
  0.47116E-02
  0.23059E-02
  0.38093E-02
  0.10979E-01
  0.11219E-01
  0.12061E-01
 -0.46774E-03
  0.16649E-01
  0.13170E-01
 -0.31646E-01
 -0.14731E-01
  0.11889E-01
  0.29064E-01
  0.28135E-01
  0.28237E-01
  0.27254E-01
 -0.12199E-01
  0.12482E-01
 -0.37574E-01
 -0.38254E-01
 -0.31682E-01
 -0.37651E-01
  0.22597E-01
  0.23392E-01
  0.57620E-02
 -0.13809E-01
 -0.19114E-01
  0.98864E-02
  0.54278E-02
  0.64675E-03
  0.10944E-01
  0.10934E-01
  0.11724E-01
  0.11673E-01
 -0.38576E-01
  0.31455E-01
  0.27896E-01
  0.27108E-01
  0.74963E-02
  0.11182E-01
  0.23224E-01
  0.78427E-02
  0.63613E-02
  0.12100E-01
 -0.10247E-01
 -0.90858E-02
  0.92612E-02
  0.10107E-01
  0.13872E-01
  0.14239E-01
 -0.26655E-01
 -0.35264E-01
 -0.36912E-01
 -0.16599E-01
 -0.10582E-01
 -0.66401E-02
  0.15268E-01
  0.11885E-01
  0.12754E-01
 -0.10004E-02
  0.51711E-02
  0.84945E-03
  0.31824E-01
  0.32410E-01
  0.12243E-01
  0.10656E-02
  0.15139E-02
  0.17305E-02
  0.88950E-02
  0.31516E-01
  0.32454E-01
  0.30347E-01
  0.71017E-02
  0.69831E-02
  0.81882E-02
  0.30611E-01
 -0.10693E-01
 -0.52437E-02
 -0.11705E-01
  0.30943E-01
  0.26228E-01
  0.25395E-01
  0.24271E-01
  0.36183E-02
  0.29666E-02
 -0.80959E-02
  0.10015E-01
  0.50741E-02
  0.10930E-02
  0.40264E-02
  0.14092E-03
 -0.34582E-01
 -0.40214E-01
 -0.39368E-01
  0.27087E-01
  0.26229E-01
  0.26517E-01
  0.25540E-01
  0.83378E-02
  0.20617E-01
  0.20835E-01
  0.58407E-02
  0.23436E-01
  0.22192E-01
  0.24772E-01
 -0.12051E-01
 -0.11570E-01
  0.12355E-01
  0.12297E-01
  0.11351E-01
  0.12116E-01
  0.18274E-01
  0.15901E-01
  0.18163E-01
  0.15581E-01
  0.17815E-01
 -0.15227E-01
  0.28018E-01
  0.15416E-01
  0.13020E-01
 -0.40380E-01
 -0.41370E-01
 -0.39516E-03
  0.20516E-02
  0.32162E-01
  0.24276E-02
  0.15516E-01
 -0.28549E-01
 -0.32484E-01
 -0.44856E-01
 -0.34929E-01
 -0.24503E-01
 -0.24199E-01
 -0.37235E-02
 -0.15753E-03
  0.18474E-01
  0.18367E-01
  0.18328E-01
  0.17365E-01
  0.17390E-01
  0.15881E-01
  0.15721E-01
  0.10788E-01
  0.11897E-01
  0.12575E-01
  0.12564E-01
  0.25217E-01
  0.24588E-01
  0.93085E-02
  0.10392E-01
  0.97275E-02
 -0.87916E-02
  0.17795E-01
  0.12487E-02
 -0.67925E-02
  0.20086E-01
  0.45963E-02
  0.38347E-02
  0.66063E-02
  0.11184E-01
 -0.24400E-01
  0.21208E-02
  0.39707E-02
 -0.39769E-01
 -0.34208E-01
 -0.21638E-01
 -0.14200E-01
 -0.10564E-01
 -0.18807E-01
 -0.54101E-02
 -0.94020E-02
  0.73933E-03
 -0.12543E-02
  0.72971E-02
  0.69080E-02
  0.14018E-01
  0.13006E-01
  0.18360E-01
  0.20301E-01
  0.22969E-01
  0.25405E-01
  0.26660E-01
  0.29288E-01
  0.28584E-01
  0.32358E-01
  0.31785E-01
  0.34392E-01
  0.33233E-01
  0.35178E-01
  0.36735E-01
  0.36868E-01
  0.38755E-01
  0.38017E-01
  0.39997E-01
  0.38545E-01
  0.36853E-01
  0.36862E-01
  0.38454E-01
  0.36230E-01
  0.37030E-01
  0.35078E-01
  0.35356E-01
  0.37263E-01
  0.35018E-01
  0.33272E-01
  0.32353E-01
  0.36878E-01
  0.35508E-01
  0.30988E-01
  0.29555E-01
  0.30520E-01
  0.27215E-01
  0.26571E-01
  0.24000E-01
  0.38614E-01
  0.31231E-01
  0.33799E-01
  0.21739E-01
  0.19860E-01
  0.21954E-01
  0.18538E-01
  0.15395E-01
  0.15108E-01
  0.11268E-01
  0.12066E-01
  0.81255E-02
  0.97129E-02
  0.63254E-02
  0.81867E-02
  0.16860E-01
  0.32261E-01
  0.31842E-01
  0.24450E-01
  0.34426E-01
  0.33120E-01
  0.39169E-01
  0.35413E-01
  0.27194E-01
  0.10338E-01
  0.21462E-01
  0.21008E-01
 -0.17701E-02
  0.97489E-02
 -0.39054E-01
 -0.46229E-02
 -0.10715E-01
  0.88915E-02
 -0.42103E-01
  0.10666E-01
  0.10433E-01
  0.16240E-01
  0.17455E-01
  0.58129E-02
  0.13338E-02
  0.10300E-02
 -0.21128E-02
  0.12722E-01
 -0.24859E-02
  0.65194E-02
  0.38377E-01
  0.95274E-02
  0.16874E-01
  0.42915E-02
  0.30056E-03
  0.17325E-01
  0.22319E-02
 -0.26633E-02
 -0.46662E-02
 -0.39320E-01
  0.31606E-02
  0.35059E-01
  0.40308E-01
 -0.48975E-02
 -0.45463E-01
 -0.47147E-02
  0.23667E-01
  0.19968E-01
  0.11472E-01
  0.32815E-01
  0.14071E-01
  0.14026E-01
  0.12020E-01
 -0.16078E-01
 -0.19971E-01
 -0.20165E-01
  0.22952E-01
  0.27379E-01
 -0.46798E-01
  0.14074E-01
  0.31769E-01
 -0.17996E-01
 -0.17861E-01
 -0.41341E-02
  0.70493E-02
  0.33828E-02
  0.29051E-02
  0.28607E-01
  0.23137E-01
  0.22506E-01
  0.16640E-01
  0.16444E-01
  0.19791E-01
  0.19121E-01
  0.34390E-01
  0.87213E-02
  0.79369E-02
  0.24029E-02
  0.24760E-01
  0.27203E-01
 -0.37489E-02
  0.11087E-01
  0.10402E-01
 -0.13661E-01
  0.18840E-03
  0.12598E-01
  0.12806E-01
 -0.20269E-01
 -0.16497E-01
 -0.42810E-01
 -0.40438E-01
  0.14147E-01
  0.12833E-01
  0.13414E-01
  0.32826E-01
  0.31405E-01
  0.32798E-01
  0.17042E-01
  0.95985E-02
  0.31173E-02
 -0.22429E-01
 -0.25587E-01
  0.12509E-01
  0.38308E-01
  0.31282E-01
  0.29881E-01
  0.12752E-01
 -0.51214E-01
  0.33346E-01
  0.13796E-01
  0.15050E-01
  0.11599E-01
  0.12266E-01
  0.17470E-01
  0.10458E-01
  0.10401E-01
  0.97354E-02
  0.18313E-01
  0.12459E-01
  0.14245E-01
  0.82167E-02
  0.64930E-02
  0.17713E-01
 -0.44409E-01
 -0.20226E-01
 -0.21891E-01
 -0.16990E-01
 -0.22322E-01
  0.83310E-02
 -0.94331E-02
  0.25760E-01
 -0.16727E-01
  0.98131E-02
  0.85405E-02
  0.10724E-01
  0.35731E-01
  0.60645E-02
  0.10639E-01
  0.23539E-01
 -0.54150E-02
 -0.93565E-02
  0.83335E-02
 -0.55046E-02
 -0.40812E-01
  0.29917E-01
  0.30803E-01
  0.40966E-01
  0.41965E-01
  0.40393E-01
  0.41805E-01
  0.40151E-01
 -0.18901E-02
  0.23024E-01
  0.50015E-02
  0.44187E-01
  0.10826E-01
  0.10822E-01
  0.23165E-01
  0.25159E-01
  0.89901E-02
  0.17064E-02
  0.94999E-02
 -0.33871E-03
 -0.80512E-02
  0.12829E-01
  0.15690E-01
 -0.66670E-02
 -0.10269E-01
 -0.10323E-01
 -0.88588E-02
  0.15575E-01
  0.15409E-01
  0.13713E-01
  0.12731E-01
  0.29465E-01
  0.43096E-01
  0.56456E-02
  0.49362E-02
  0.47766E-02
 -0.10094E-02
  0.46183E-02
  0.50139E-02
  0.15940E-01
 -0.30038E-02
 -0.27696E-01
  0.38708E-02
  0.64846E-04
 -0.49808E-02
 -0.52342E-01
 -0.34874E-01
 -0.38706E-01
  0.31485E-01
  0.32447E-01
  0.32675E-01
  0.22844E-02
 -0.35193E-01
 -0.30236E-01
 -0.29876E-02
 -0.10426E-01
  0.23884E-01
  0.24470E-01
  0.17924E-01
  0.33979E-01
 -0.77635E-02
 -0.14479E-01
 -0.15978E-01
  0.20717E-01
  0.21062E-01
  0.22240E-01
  0.19764E-01
  0.21568E-01
  0.21784E-01
  0.24083E-01
  0.24759E-01
  0.31064E-01
  0.31181E-01
  0.31203E-01
  0.30945E-01
  0.12545E-01
  0.29950E-01
  0.29107E-01
  0.30774E-01
  0.31117E-01
  0.28086E-01
  0.30171E-01
  0.29309E-01
 -0.14581E-01
  0.99350E-02
  0.10003E-01
  0.93529E-02
  0.10251E-01
  0.10543E-01
  0.95135E-02
  0.11197E-01
  0.10850E-01
  0.10439E-01
  0.85105E-02
  0.84974E-02
  0.42165E-02
  0.26218E-01
  0.26848E-01
  0.28035E-01
  0.28248E-01
  0.29202E-01
  0.29171E-01
  0.29507E-01
 -0.59042E-02
 -0.98035E-02
  0.10708E-01
  0.27314E-01
  0.29417E-01
  0.29820E-01
 -0.19395E-01
 -0.12636E-01
  0.42805E-04
 -0.63430E-02
  0.24058E-01
  0.28093E-01
  0.28184E-01
  0.22828E-01
  0.11759E-01
  0.10032E-01
  0.10430E-01
  0.80642E-02
  0.78032E-02
  0.55006E-02
  0.43970E-02
  0.23763E-02
  0.40218E-02
  0.74717E-02
  0.80202E-02
  0.28817E-01
  0.66432E-02
  0.54162E-02
  0.57902E-02
  0.39199E-02
  0.46967E-02
  0.64752E-02
  0.57394E-02
  0.33179E-02
 -0.15424E-01
  0.23364E-01
  0.25547E-01
  0.26791E-01
  0.10386E-01
  0.88488E-02
  0.81293E-02
  0.90750E-02
  0.82473E-02
  0.93728E-02
  0.82820E-02
  0.67143E-02
  0.97907E-02
  0.96415E-02
  0.16854E-01
  0.16602E-01
  0.17757E-01
  0.16676E-01
  0.17729E-01
  0.18051E-01
  0.18796E-01
 -0.53376E-02
  0.23838E-01
 -0.46711E-01
  0.15963E-02
  0.56991E-02
 -0.98096E-02
  0.11819E-01
  0.62367E-02
  0.56152E-02
  0.57169E-02
  0.72643E-02
  0.71181E-02
  0.30502E-01
 -0.32168E-01
  0.28108E-02
  0.34974E-01
  0.10281E-01
  0.16097E-02
  0.10231E-01
  0.18823E-01
  0.70645E-02
  0.13685E-01
  0.12413E-02
  0.14031E-01
  0.51816E-02
  0.88399E-02
  0.96092E-02
  0.11081E-01
 -0.17629E-01
 -0.63696E-02
 -0.45212E-02
 -0.52609E-02
 -0.33272E-01
  0.87656E-02
  0.31699E-02
  0.17148E-01
  0.11755E-01
  0.16087E-01
  0.18514E-01
  0.15903E-01
  0.17804E-01
  0.20055E-01
  0.18806E-01
  0.17514E-01
  0.18064E-01
  0.18649E-01
  0.19906E-01
  0.20442E-01
  0.13240E-01
  0.11912E-01
 -0.28044E-01
  0.99974E-02
  0.10409E-01
  0.33594E-01
  0.33061E-01
  0.33922E-01
  0.33311E-01
  0.33929E-01
  0.75806E-02
  0.18042E-01
  0.85426E-02
  0.61392E-02
  0.12350E-01
  0.63560E-03
  0.21648E-01
  0.92299E-02
  0.21307E-01
 -0.76665E-02
 -0.66642E-02
 -0.89308E-02
  0.38654E-02
  0.39412E-02
  0.61215E-02
  0.28097E-02
  0.33031E-02
  0.18129E-02
  0.33267E-02
  0.20174E-02
  0.54321E-03
  0.99536E-03
  0.29387E-02
  0.45536E-02
  0.49288E-02
  0.65446E-02
  0.66308E-02
  0.22077E-01
  0.17291E-01
  0.13323E-01
  0.83355E-02
  0.78540E-02
 -0.13855E-01
  0.69449E-03
 -0.28625E-02
 -0.22550E-01
 -0.15972E-01
  0.61973E-02
  0.19421E-02
  0.73276E-02
  0.52039E-02
 -0.57196E-02
  0.32603E-01
 -0.77767E-02
 -0.15796E-01
 -0.88642E-03
  0.74613E-02
  0.20023E-01
  0.35211E-01
  0.90521E-02
  0.12539E-01
 -0.67717E-02
  0.15644E-01
  0.34139E-02
 -0.21164E-01
 -0.45379E-02
  0.43289E-02
  0.66190E-02
  0.16239E-01
 -0.22013E-02
  0.13961E-01
 -0.23471E-01
 -0.40321E-01
 -0.41804E-01
  0.60357E-02
 -0.96695E-02
  0.34175E-01
  0.11639E-01
  0.12043E-01
 -0.82954E-03
  0.26024E-01
  0.33850E-01
  0.23002E-01
 -0.38540E-01
  0.66466E-02
  0.92521E-02
  0.14069E-01
 -0.13574E-01
  0.15021E-02
  0.17391E-01
  0.97640E-02
 -0.37510E-01
  0.39881E-02
  0.18405E-01
  0.24526E-02
  0.41079E-01
  0.75351E-02
 -0.20235E-01
  0.22473E-01
 -0.40141E-02
  0.15848E-01
  0.99283E-02
  0.16752E-01
  0.35896E-02
  0.13728E-01
 -0.99542E-02
 -0.18328E-03
  0.12698E-01
  0.28365E-01
 -0.20164E-02
  0.97685E-03
  0.31045E-01
 -0.24122E-01
 -0.28004E-01
  0.10766E-02
  0.21973E-01
 -0.59255E-01
 -0.62849E-01
  0.45315E-02
  0.20640E-01
 -0.13056E-01
 -0.22883E-01
 -0.43125E-01
  0.16721E-01
  0.86479E-02
  0.30843E-01
  0.18325E-01
  0.14416E-02
 -0.18292E-01
  0.18273E-01
  0.12983E-01
  0.24293E-02
  0.15927E-01
  0.31223E-01
  0.11799E-01
  0.20281E-01
  0.30961E-01
  0.14285E-01
  0.48914E-02
  0.20039E-01
 -0.42361E-01
 -0.19985E-01
  0.12767E-01
 -0.14581E-01
  0.29482E-01
  0.10320E-01
  0.73272E-02
  0.18112E-01
  0.20508E-01
  0.55645E-02
  0.25349E-01
  0.23483E-01
  0.61383E-02
  0.20945E-01
  0.61587E-02
  0.16730E-01
 -0.67686E-02
  0.89590E-02
  0.27022E-01
  0.12021E-01
 -0.44988E-01
  0.17576E-01
  0.29737E-01
  0.34698E-02
 -0.33798E-01
  0.34328E-01
  0.14620E-01
  0.99820E-02
  0.88636E-02
  0.31467E-01
 -0.87953E-02
  0.21013E-01
  0.27127E-01
 -0.88424E-05
  0.19838E-01
  0.25881E-01
  0.18162E-01
  0.36328E-01
  0.33460E-01
  0.23663E-01
 -0.88884E-02
  0.21989E-01
  0.11025E-01
 -0.31258E-02
 -0.23585E-01