# vtk DataFile Version 2.0
Unstructured Grid UFVM-ECOMOD
ASCII
DATASET UNSTRUCTURED_GRID
 POINTS         2086  float
  0.00000E+00  0.00000E+00  0.00000E+00
  0.40000E+01  0.00000E+00  0.00000E+00
  0.40000E+01  0.20000E+01  0.00000E+00
  0.00000E+00  0.20000E+01  0.00000E+00
  0.11787E+01  0.12812E+01  0.00000E+00
  0.11720E+01  0.12579E+01  0.00000E+00
  0.11523E+01  0.12361E+01  0.00000E+00
  0.11208E+01  0.12171E+01  0.00000E+00
  0.10795E+01  0.12021E+01  0.00000E+00
  0.10311E+01  0.11921E+01  0.00000E+00
  0.97842E+00  0.11877E+01  0.00000E+00
  0.92495E+00  0.11892E+01  0.00000E+00
  0.87399E+00  0.11964E+01  0.00000E+00
  0.82875E+00  0.12090E+01  0.00000E+00
  0.79207E+00  0.12262E+01  0.00000E+00
  0.76626E+00  0.12467E+01  0.00000E+00
  0.75294E+00  0.12695E+01  0.00000E+00
  0.75294E+00  0.12930E+01  0.00000E+00
  0.76626E+00  0.13158E+01  0.00000E+00
  0.79207E+00  0.13363E+01  0.00000E+00
  0.82875E+00  0.13535E+01  0.00000E+00
  0.87399E+00  0.13661E+01  0.00000E+00
  0.92495E+00  0.13733E+01  0.00000E+00
  0.97842E+00  0.13748E+01  0.00000E+00
  0.10311E+01  0.13704E+01  0.00000E+00
  0.10795E+01  0.13604E+01  0.00000E+00
  0.11208E+01  0.13454E+01  0.00000E+00
  0.11523E+01  0.13264E+01  0.00000E+00
  0.11720E+01  0.13046E+01  0.00000E+00
  0.11275E+01  0.10550E+01  0.00000E+00
  0.11246E+01  0.10357E+01  0.00000E+00
  0.11162E+01  0.10177E+01  0.00000E+00
  0.11028E+01  0.10019E+01  0.00000E+00
  0.10851E+01  0.98956E+00  0.00000E+00
  0.10644E+01  0.98129E+00  0.00000E+00
  0.10420E+01  0.97765E+00  0.00000E+00
  0.10192E+01  0.97887E+00  0.00000E+00
  0.99740E+00  0.98488E+00  0.00000E+00
  0.97809E+00  0.99529E+00  0.00000E+00
  0.96243E+00  0.10094E+01  0.00000E+00
  0.95141E+00  0.10265E+01  0.00000E+00
  0.94572E+00  0.10453E+01  0.00000E+00
  0.94572E+00  0.10647E+01  0.00000E+00
  0.95141E+00  0.10835E+01  0.00000E+00
  0.96243E+00  0.11005E+01  0.00000E+00
  0.97809E+00  0.11147E+01  0.00000E+00
  0.99740E+00  0.11251E+01  0.00000E+00
  0.10192E+01  0.11311E+01  0.00000E+00
  0.10420E+01  0.11323E+01  0.00000E+00
  0.10644E+01  0.11287E+01  0.00000E+00
  0.10851E+01  0.11204E+01  0.00000E+00
  0.11028E+01  0.11080E+01  0.00000E+00
  0.11162E+01  0.10923E+01  0.00000E+00
  0.11246E+01  0.10743E+01  0.00000E+00
  0.62875E+00  0.11344E+01  0.00000E+00
  0.62759E+00  0.10960E+01  0.00000E+00
  0.62419E+00  0.10600E+01  0.00000E+00
  0.61876E+00  0.10287E+01  0.00000E+00
  0.61163E+00  0.10040E+01  0.00000E+00
  0.60327E+00  0.98756E+00  0.00000E+00
  0.59419E+00  0.98030E+00  0.00000E+00
  0.58497E+00  0.98273E+00  0.00000E+00
  0.57617E+00  0.99469E+00  0.00000E+00
  0.56837E+00  0.10154E+01  0.00000E+00
  0.56204E+00  0.10436E+01  0.00000E+00
  0.55759E+00  0.10776E+01  0.00000E+00
  0.55529E+00  0.11150E+01  0.00000E+00
  0.55529E+00  0.11537E+01  0.00000E+00
  0.55759E+00  0.11912E+01  0.00000E+00
  0.56204E+00  0.12251E+01  0.00000E+00
  0.56837E+00  0.12533E+01  0.00000E+00
  0.57617E+00  0.12741E+01  0.00000E+00
  0.58497E+00  0.12860E+01  0.00000E+00
  0.59419E+00  0.12885E+01  0.00000E+00
  0.60327E+00  0.12812E+01  0.00000E+00
  0.61163E+00  0.12647E+01  0.00000E+00
  0.61876E+00  0.12401E+01  0.00000E+00
  0.62419E+00  0.12087E+01  0.00000E+00
  0.62759E+00  0.11728E+01  0.00000E+00
  0.10000E+00  0.00000E+00  0.00000E+00
  0.20000E+00  0.00000E+00  0.00000E+00
  0.30000E+00  0.00000E+00  0.00000E+00
  0.40000E+00  0.00000E+00  0.00000E+00
  0.50000E+00  0.00000E+00  0.00000E+00
  0.60000E+00  0.00000E+00  0.00000E+00
  0.70000E+00  0.00000E+00  0.00000E+00
  0.80000E+00  0.00000E+00  0.00000E+00
  0.90000E+00  0.00000E+00  0.00000E+00
  0.10000E+01  0.00000E+00  0.00000E+00
  0.11000E+01  0.00000E+00  0.00000E+00
  0.12000E+01  0.00000E+00  0.00000E+00
  0.13000E+01  0.00000E+00  0.00000E+00
  0.14000E+01  0.00000E+00  0.00000E+00
  0.15000E+01  0.00000E+00  0.00000E+00
  0.16000E+01  0.00000E+00  0.00000E+00
  0.17000E+01  0.00000E+00  0.00000E+00
  0.18000E+01  0.00000E+00  0.00000E+00
  0.19000E+01  0.00000E+00  0.00000E+00
  0.20000E+01  0.00000E+00  0.00000E+00
  0.21000E+01  0.00000E+00  0.00000E+00
  0.22000E+01  0.00000E+00  0.00000E+00
  0.23000E+01  0.00000E+00  0.00000E+00
  0.24000E+01  0.00000E+00  0.00000E+00
  0.25000E+01  0.00000E+00  0.00000E+00
  0.26000E+01  0.00000E+00  0.00000E+00
  0.27000E+01  0.00000E+00  0.00000E+00
  0.28000E+01  0.00000E+00  0.00000E+00
  0.29000E+01  0.00000E+00  0.00000E+00
  0.30000E+01  0.00000E+00  0.00000E+00
  0.31000E+01  0.00000E+00  0.00000E+00
  0.32000E+01  0.00000E+00  0.00000E+00
  0.33000E+01  0.00000E+00  0.00000E+00
  0.34000E+01  0.00000E+00  0.00000E+00
  0.35000E+01  0.00000E+00  0.00000E+00
  0.36000E+01  0.00000E+00  0.00000E+00
  0.37000E+01  0.00000E+00  0.00000E+00
  0.38000E+01  0.00000E+00  0.00000E+00
  0.39000E+01  0.00000E+00  0.00000E+00
  0.40000E+01  0.10000E+00  0.00000E+00
  0.40000E+01  0.20000E+00  0.00000E+00
  0.40000E+01  0.30000E+00  0.00000E+00
  0.40000E+01  0.40000E+00  0.00000E+00
  0.40000E+01  0.50000E+00  0.00000E+00
  0.40000E+01  0.60000E+00  0.00000E+00
  0.40000E+01  0.70000E+00  0.00000E+00
  0.40000E+01  0.80000E+00  0.00000E+00
  0.40000E+01  0.90000E+00  0.00000E+00
  0.40000E+01  0.10000E+01  0.00000E+00
  0.40000E+01  0.11000E+01  0.00000E+00
  0.40000E+01  0.12000E+01  0.00000E+00
  0.40000E+01  0.13000E+01  0.00000E+00
  0.40000E+01  0.14000E+01  0.00000E+00
  0.40000E+01  0.15000E+01  0.00000E+00
  0.40000E+01  0.16000E+01  0.00000E+00
  0.40000E+01  0.17000E+01  0.00000E+00
  0.40000E+01  0.18000E+01  0.00000E+00
  0.40000E+01  0.19000E+01  0.00000E+00
  0.39000E+01  0.20000E+01  0.00000E+00
  0.38000E+01  0.20000E+01  0.00000E+00
  0.37000E+01  0.20000E+01  0.00000E+00
  0.36000E+01  0.20000E+01  0.00000E+00
  0.35000E+01  0.20000E+01  0.00000E+00
  0.34000E+01  0.20000E+01  0.00000E+00
  0.33000E+01  0.20000E+01  0.00000E+00
  0.32000E+01  0.20000E+01  0.00000E+00
  0.31000E+01  0.20000E+01  0.00000E+00
  0.30000E+01  0.20000E+01  0.00000E+00
  0.29000E+01  0.20000E+01  0.00000E+00
  0.28000E+01  0.20000E+01  0.00000E+00
  0.27000E+01  0.20000E+01  0.00000E+00
  0.26000E+01  0.20000E+01  0.00000E+00
  0.25000E+01  0.20000E+01  0.00000E+00
  0.24000E+01  0.20000E+01  0.00000E+00
  0.23000E+01  0.20000E+01  0.00000E+00
  0.22000E+01  0.20000E+01  0.00000E+00
  0.21000E+01  0.20000E+01  0.00000E+00
  0.20000E+01  0.20000E+01  0.00000E+00
  0.19000E+01  0.20000E+01  0.00000E+00
  0.18000E+01  0.20000E+01  0.00000E+00
  0.17000E+01  0.20000E+01  0.00000E+00
  0.16000E+01  0.20000E+01  0.00000E+00
  0.15000E+01  0.20000E+01  0.00000E+00
  0.14000E+01  0.20000E+01  0.00000E+00
  0.13000E+01  0.20000E+01  0.00000E+00
  0.12000E+01  0.20000E+01  0.00000E+00
  0.11000E+01  0.20000E+01  0.00000E+00
  0.10000E+01  0.20000E+01  0.00000E+00
  0.90000E+00  0.20000E+01  0.00000E+00
  0.80000E+00  0.20000E+01  0.00000E+00
  0.70000E+00  0.20000E+01  0.00000E+00
  0.60000E+00  0.20000E+01  0.00000E+00
  0.50000E+00  0.20000E+01  0.00000E+00
  0.40000E+00  0.20000E+01  0.00000E+00
  0.30000E+00  0.20000E+01  0.00000E+00
  0.20000E+00  0.20000E+01  0.00000E+00
  0.10000E+00  0.20000E+01  0.00000E+00
  0.00000E+00  0.19000E+01  0.00000E+00
  0.00000E+00  0.18000E+01  0.00000E+00
  0.00000E+00  0.17000E+01  0.00000E+00
  0.00000E+00  0.16000E+01  0.00000E+00
  0.00000E+00  0.15000E+01  0.00000E+00
  0.00000E+00  0.14000E+01  0.00000E+00
  0.00000E+00  0.13000E+01  0.00000E+00
  0.00000E+00  0.12000E+01  0.00000E+00
  0.00000E+00  0.11000E+01  0.00000E+00
  0.00000E+00  0.10000E+01  0.00000E+00
  0.00000E+00  0.90000E+00  0.00000E+00
  0.00000E+00  0.80000E+00  0.00000E+00
  0.00000E+00  0.70000E+00  0.00000E+00
  0.00000E+00  0.60000E+00  0.00000E+00
  0.00000E+00  0.50000E+00  0.00000E+00
  0.00000E+00  0.40000E+00  0.00000E+00
  0.00000E+00  0.30000E+00  0.00000E+00
  0.00000E+00  0.20000E+00  0.00000E+00
  0.00000E+00  0.10000E+00  0.00000E+00
  0.11961E+01  0.12633E+01  0.00000E+00
  0.21488E+01  0.93320E-01  0.00000E+00
  0.61866E+00  0.98978E+00  0.00000E+00
  0.20489E+01  0.19184E+01  0.00000E+00
  0.25498E+01  0.19136E+01  0.00000E+00
  0.29499E+01  0.86560E-01  0.00000E+00
  0.93236E+00  0.10310E+01  0.00000E+00
  0.17510E+01  0.72450E-01  0.00000E+00
  0.29467E+01  0.19168E+01  0.00000E+00
  0.25487E+01  0.85720E-01  0.00000E+00
  0.76221E+00  0.13471E+01  0.00000E+00
  0.39134E+01  0.10499E+01  0.00000E+00
  0.11777E+01  0.13352E+01  0.00000E+00
  0.75033E+00  0.75620E-01  0.00000E+00
  0.13476E+01  0.80200E-01  0.00000E+00
  0.10427E+01  0.86980E-01  0.00000E+00
  0.16534E+01  0.19146E+01  0.00000E+00
  0.33491E+01  0.86080E-01  0.00000E+00
  0.76560E-01  0.54986E+00  0.00000E+00
  0.33536E+01  0.19187E+01  0.00000E+00
  0.64251E+00  0.10384E+01  0.00000E+00
  0.54363E+00  0.10247E+01  0.00000E+00
  0.39158E+01  0.64933E+00  0.00000E+00
  0.53844E+00  0.12429E+01  0.00000E+00
  0.11152E+01  0.13830E+01  0.00000E+00
  0.39057E+01  0.13553E+01  0.00000E+00
  0.45348E+00  0.19192E+01  0.00000E+00
  0.84329E+00  0.13986E+01  0.00000E+00
  0.10069E+01  0.14153E+01  0.00000E+00
  0.79140E-01  0.15509E+01  0.00000E+00
  0.51664E+00  0.11388E+01  0.00000E+00
  0.13387E+01  0.19132E+01  0.00000E+00
  0.61809E+00  0.12788E+01  0.00000E+00
  0.44149E+00  0.86000E-01  0.00000E+00
  0.82010E-01  0.85167E+00  0.00000E+00
  0.79235E+00  0.11912E+01  0.00000E+00
  0.73934E+00  0.19100E+01  0.00000E+00
  0.97720E-01  0.12541E+01  0.00000E+00
  0.36625E+01  0.99060E-01  0.00000E+00
  0.36500E+01  0.19142E+01  0.00000E+00
  0.10534E+01  0.19002E+01  0.00000E+00
  0.93232E+00  0.10799E+01  0.00000E+00
  0.73234E+00  0.12821E+01  0.00000E+00
  0.11221E+01  0.11125E+01  0.00000E+00
  0.38972E+01  0.16498E+01  0.00000E+00
  0.39125E+01  0.34987E+00  0.00000E+00
  0.91360E-01  0.10554E+01  0.00000E+00
  0.66195E+00  0.11154E+01  0.00000E+00
  0.82340E-01  0.34870E+00  0.00000E+00
  0.18502E+01  0.19156E+01  0.00000E+00
  0.15459E+01  0.76350E-01  0.00000E+00
  0.19483E+01  0.85500E-01  0.00000E+00
[...]
 POINT_DATA         2086
  
 SCALARS WL      float 1
 LOOKUP_TABLE default
  0.11162E-01
  0.11513E-02
  0.58287E-02
  0.22191E-01
 -0.34221E-01
 -0.36145E-01
 -0.25634E-01
 -0.14739E-01
 -0.13430E-01
 -0.13996E-01
 -0.13328E-01
 -0.13414E-01
 -0.13448E-01
 -0.12686E-01
 -0.12195E-01
 -0.11941E-01
 -0.13237E-01
 -0.11514E-01
 -0.45210E-02
 -0.17211E-02
 -0.66209E-02
 -0.20527E-01
 -0.34677E-01
 -0.48712E-01
 -0.53300E-01
 -0.48570E-01
 -0.37899E-01
 -0.31478E-01
 -0.31133E-01
 -0.18384E-01
 -0.15036E-01
 -0.13826E-01
 -0.14412E-01
 -0.15518E-01
 -0.16313E-01
 -0.17610E-01
 -0.19687E-01
 -0.21355E-01
 -0.21073E-01
 -0.19229E-01
 -0.17745E-01
 -0.16444E-01
 -0.15463E-01
 -0.14742E-01
 -0.14180E-01
 -0.13787E-01
 -0.13593E-01
 -0.13877E-01
 -0.14700E-01
 -0.15939E-01
 -0.17060E-01
 -0.18418E-01
 -0.21602E-01
 -0.21360E-01
 -0.11078E-01
 -0.11777E-01
 -0.11966E-01
 -0.11659E-01
 -0.11411E-01
 -0.11479E-01
 -0.12074E-01
 -0.55419E-02
  0.10658E-01
  0.25983E-01
  0.35627E-01
  0.40836E-01
  0.43265E-01
  0.43730E-01
  0.42337E-01
  0.38091E-01
  0.28727E-01
  0.12032E-01
 -0.49627E-02
 -0.11306E-01
 -0.10969E-01
 -0.11492E-01
 -0.11198E-01
 -0.10053E-01
 -0.10257E-01
  0.10984E-01
  0.10563E-01
  0.98805E-02
  0.90205E-02
  0.80875E-02
  0.70420E-02
  0.62197E-02
  0.55956E-02
  0.53605E-02
  0.53293E-02
  0.53564E-02
  0.53458E-02
  0.52599E-02
  0.50477E-02
  0.49542E-02
  0.48569E-02
  0.48264E-02
  0.47624E-02
  0.46932E-02
  0.45751E-02
  0.44912E-02
  0.44266E-02
  0.44251E-02
  0.46272E-02
  0.49670E-02
  0.54583E-02
  0.60356E-02
  0.65995E-02
  0.70861E-02
  0.74337E-02
  0.75142E-02
  0.75240E-02
  0.74875E-02
  0.72518E-02
  0.68884E-02
  0.62645E-02
  0.53244E-02
  0.41023E-02
  0.23898E-02
  0.00000E+00
  0.00000E+00
  0.00000E+00
  0.00000E+00
  0.00000E+00
  0.00000E+00
  0.00000E+00
  0.00000E+00
  0.00000E+00
  0.00000E+00
  0.00000E+00
  0.00000E+00
  0.00000E+00
  0.00000E+00
  0.00000E+00
  0.00000E+00
  0.00000E+00
  0.00000E+00
  0.00000E+00
  0.80343E-02
  0.10626E-01
  0.11459E-01
  0.11229E-01
  0.10630E-01
  0.97230E-02
  0.82736E-02
  0.69401E-02
  0.64606E-02
  0.61641E-02
  0.61178E-02
  0.61208E-02
  0.60512E-02
  0.60432E-02
  0.63168E-02
  0.69231E-02
  0.73783E-02
  0.72143E-02
  0.72071E-02
  0.67859E-02
  0.59612E-02
  0.49633E-02
  0.37405E-02
  0.21754E-02
  0.80586E-04
 -0.29197E-02
 -0.61192E-02
 -0.83893E-02
 -0.87018E-02
 -0.64010E-02
 -0.21837E-02
  0.25647E-02
  0.71777E-02
  0.11542E-01
  0.15241E-01
  0.18201E-01
  0.20442E-01
  0.21809E-01
  0.22267E-01
  0.22271E-01
  0.22594E-01
  0.23126E-01
  0.23843E-01
  0.24708E-01
  0.25568E-01
  0.26223E-01
  0.26453E-01
  0.26037E-01
  0.24875E-01
  0.23143E-01
  0.21083E-01
  0.18895E-01
  0.16955E-01
  0.15201E-01
  0.13712E-01
  0.12622E-01
  0.11829E-01
  0.11365E-01
 -0.34323E-01
  0.44814E-02
 -0.11343E-01
  0.71085E-02
  0.60279E-02
  0.72191E-02
 -0.16884E-01
  0.47462E-02
  0.58965E-02
  0.52309E-02
 -0.31913E-02
 -0.11216E-02
 -0.30647E-01
  0.59035E-02
  0.49357E-02
  0.52136E-02
  0.29714E-02
  0.73235E-02
  0.16053E-01
  0.87961E-02
 -0.11811E-01
  0.32161E-01
  0.62012E-03
  0.35237E-01
 -0.42241E-01
 -0.21026E-02
  0.16757E-01
 -0.11595E-01
 -0.49251E-01
  0.24502E-01
  0.42974E-01
 -0.51047E-02
 -0.10998E-01
  0.87415E-02
  0.22386E-01
 -0.12437E-01
  0.51838E-02
  0.27042E-01
  0.56241E-02
  0.11006E-01
 -0.85056E-02
 -0.14930E-01
 -0.13757E-01
 -0.19588E-01
  0.32767E-02
  0.14148E-02
  0.26151E-01
 -0.11701E-01
  0.13034E-01
  0.54454E-02
  0.47651E-02
  0.46480E-02
  0.73429E-02
  0.45882E-02
  0.65159E-02
  0.58761E-02
  0.63080E-02
  0.75106E-02
 -0.15952E-03
  0.23020E-01
 -0.10547E-01
 -0.19622E-01
  0.10337E-01
 -0.11823E-01
 -0.30739E-01
 -0.32289E-01
 -0.29100E-01
 -0.32610E-01
 -0.28002E-01
 -0.33632E-01
 -0.29621E-01
 -0.35671E-01
 -0.39728E-01
 -0.41992E-01
 -0.44816E-01
 -0.46961E-01
 -0.48631E-01
 -0.49927E-01
 -0.50062E-01
 -0.49591E-01
 -0.47366E-01
 -0.44502E-01
 -0.39615E-01
 -0.35115E-01
 -0.28572E-01
 -0.24231E-01
 -0.17871E-01
 -0.14689E-01
 -0.18730E-01
 -0.11333E-01
 -0.47622E-01
 -0.32126E-01
 -0.90879E-02
 -0.13734E-01
 -0.87716E-02
 -0.10186E-01
 -0.74469E-02
 -0.84647E-02
 -0.74507E-02
 -0.54050E-02
 -0.69251E-02
 -0.86385E-02
 -0.94421E-02
 -0.45391E-02
 -0.10228E-01
 -0.23463E-02
 -0.18514E-02
  0.47420E-02
  0.56223E-02
  0.85496E-02
  0.81731E-02
 -0.10740E-01
 -0.12020E-01
 -0.16567E-01
 -0.12596E-01
 -0.12926E-01
  0.81201E-02
  0.64311E-02
 -0.13119E-01
 -0.11378E-01
 -0.99231E-02
 -0.73878E-02
 -0.88311E-02
 -0.54033E-02
 -0.28850E-02
 -0.20455E-02
 -0.46532E-02
 -0.23282E-02
 -0.53847E-02
 -0.38571E-02
 -0.10055E-01
 -0.78426E-02
 -0.71090E-02
  0.59640E-02
  0.37823E-02
 -0.24316E-02
 -0.58864E-02
 -0.11585E-01
 -0.94183E-02
 -0.15153E-01
 -0.11439E-01
  0.45961E-03
 -0.15975E-01
 -0.11033E-01
 -0.13899E-01
 -0.90044E-02
 -0.65055E-02
 -0.50553E-02
 -0.65696E-02
 -0.43083E-02
  0.37754E-02
  0.50868E-02
  0.17680E-02
 -0.35900E-02
 -0.46511E-02
 -0.19687E-02
 -0.27748E-01
 -0.28523E-01
 -0.24497E-01
 -0.22931E-01
  0.11313E-02
 -0.14252E-01
 -0.37748E-03
 -0.15967E-02
 -0.20929E-02
 -0.36649E-02
 -0.31999E-02
 -0.49065E-02
 -0.20912E-01
 -0.38003E-02
 -0.17763E-01
 -0.54506E-02
 -0.38478E-02
 -0.53526E-02
 -0.34076E-02
 -0.48700E-02
 -0.27057E-02
 -0.38882E-02
 -0.16713E-02
 -0.26106E-02
 -0.42323E-03
 -0.10485E-02
  0.10286E-02
  0.57503E-03
 -0.15861E-02
  0.25367E-03
 -0.19994E-02
  0.31089E-04
  0.20590E-02
  0.21615E-02
  0.39265E-02
  0.43905E-02
  0.59303E-02
  0.67680E-02
 -0.23588E-02
  0.80464E-02
  0.70722E-02
  0.89336E-02
 -0.15822E-01
  0.92468E-02
 -0.44144E-02
 -0.49737E-02
 -0.19937E-01
 -0.17107E-01
  0.49952E-02
 -0.24665E-02
  0.45008E-03
 -0.15979E-02
  0.14074E-02
 -0.10284E-02
  0.49053E-03
 -0.80153E-02
 -0.99545E-02
 -0.41218E-01
 -0.19902E-01
 -0.70335E-02
 -0.78566E-02
  0.10401E-02
  0.24405E-02
  0.21574E-02
  0.78404E-02
  0.95068E-02
 -0.16091E-01
 -0.12907E-01
 -0.13802E-01
 -0.97633E-02
 -0.99776E-02
  0.52901E-02
 -0.99476E-02
 -0.10752E-01
 -0.86868E-02
 -0.11260E-01
 -0.94023E-02
 -0.11596E-01
 -0.10261E-01
 -0.12507E-01
 -0.12484E-01
  0.28079E-02
  0.15650E-02
  0.39098E-02
 -0.38862E-02
 -0.65415E-02
 -0.63131E-02
 -0.12993E-01
 -0.12831E-01
  0.83498E-02
  0.97434E-02
  0.11061E-01
 -0.45450E-01
 -0.12877E-01
  0.40569E-02
 -0.73013E-02
 -0.34241E-02
 -0.32074E-02
  0.48791E-02
  0.10984E-01
  0.73753E-02
 -0.70505E-02
 -0.95283E-03
 -0.76551E-03
 -0.13290E-01
 -0.13025E-01
 -0.13573E-01
 -0.17480E-01
 -0.13574E-01
 -0.20300E-01
  0.86662E-02
  0.47182E-02
  0.53893E-02
  0.55008E-02
 -0.16691E-01
 -0.22049E-01
  0.12478E-01
 -0.12649E-01
 -0.12842E-01
 -0.13210E-01
 -0.13030E-01
  0.11161E-02
  0.96448E-03
  0.73443E-02
 -0.76011E-02
 -0.84608E-02
 -0.13357E-01
 -0.90896E-02
 -0.12069E-01
 -0.42090E-02
  0.49439E-02
  0.41265E-02
 -0.13838E-01
 -0.14593E-01
  0.12022E-01
  0.56530E-02
 -0.54602E-02
 -0.63025E-02
 -0.92217E-02
 -0.71165E-02
 -0.36061E-02
 -0.38670E-02
 -0.43205E-03
 -0.88883E-04
  0.32079E-02
  0.44667E-02
  0.73669E-02
  0.99334E-02
  0.11717E-01
  0.15198E-01
  0.15518E-01
  0.19351E-01
  0.18313E-01
  0.22030E-01
  0.20272E-01
  0.23309E-01
  0.21417E-01
 -0.99277E-02
  0.25685E-01
  0.26024E-01
  0.28841E-01
  0.18764E-01
  0.19756E-01
  0.26509E-02
  0.22507E-02
 -0.33696E-01
 -0.20605E-03
  0.25624E-02
  0.21350E-02
  0.41660E-02
  0.38708E-02
  0.51868E-02
  0.49320E-02
  0.52884E-02
  0.57983E-02
  0.57951E-02
  0.59553E-02
  0.59241E-02
  0.34898E-02
  0.46476E-02
  0.32313E-02
  0.44598E-02
  0.51297E-02
  0.48906E-02
  0.31904E-02
  0.51336E-02
  0.48475E-02
  0.58715E-02
  0.58596E-02
  0.46386E-02
  0.45245E-02
 -0.11772E-01
 -0.70927E-02
 -0.47371E-02
 -0.61522E-02
 -0.36848E-02
 -0.39701E-02
 -0.17098E-02
 -0.20817E-02
 -0.25014E-03
 -0.15535E-02
  0.16373E-03
 -0.21954E-02
 -0.25001E-03
 -0.11649E-02
 -0.38349E-02
  0.43427E-02
  0.41151E-02
  0.57581E-02
  0.57551E-02
 -0.37004E-02
  0.77509E-02
  0.66066E-02
 -0.30282E-02
 -0.44320E-02
 -0.41649E-02
  0.20189E-02
 -0.99733E-02
  0.50373E-02
  0.58052E-02
 -0.22421E-01
 -0.11041E-01
 -0.14017E-01
  0.37012E-02
  0.33334E-02
  0.34855E-02
 -0.13164E-01
 -0.13390E-01
 -0.12839E-01
 -0.37376E-01
  0.69693E-03
 -0.11698E-02
  0.10706E-01
  0.11556E-01
 -0.17565E-01
 -0.20925E-01
  0.19969E-01
 -0.30716E-03
 -0.31069E-02
  0.21919E-01
  0.20123E-01
  0.13816E-01
  0.28078E-01
  0.30917E-01
 -0.11794E-01
 -0.12522E-01
  0.46561E-02
  0.54427E-02
  0.55645E-02
  0.57194E-02
  0.56361E-02
  0.52603E-02
  0.54714E-02
  0.57474E-02
  0.62335E-02
 -0.26234E-03
 -0.43373E-01
  0.48218E-02
  0.52370E-02
  0.57384E-02
  0.56693E-02
 -0.14466E-01
 -0.15611E-01
 -0.56479E-02
 -0.43964E-02
 -0.25261E-02
  0.56940E-02
  0.46780E-02
  0.42697E-02
  0.19599E-02
  0.25502E-02
  0.52304E-02
  0.32574E-02
  0.59756E-02
  0.39280E-02
  0.90595E-04
  0.82073E-03
  0.38241E-02
  0.26814E-03
  0.28831E-02
 -0.12888E-02
 -0.12850E-01
 -0.16021E-01
  0.43610E-02
  0.33096E-02
  0.14302E-02
 -0.37387E-02
  0.91759E-02
 -0.13591E-01
  0.23995E-02
 -0.55274E-03
 -0.61730E-02
 -0.12923E-01
  0.57312E-02
 -0.51954E-02
 -0.14300E-01
 -0.17202E-01
 -0.14962E-01
 -0.17153E-01
 -0.14805E-01
 -0.16143E-01
 -0.14296E-01
 -0.15298E-01
 -0.13861E-01
 -0.15288E-01
 -0.13400E-01
 -0.15112E-01
 -0.31115E-02
  0.51477E-02
 -0.12487E-01
 -0.13798E-01
 -0.10653E-01
 -0.11940E-01
 -0.78717E-02
 -0.95849E-02
 -0.13434E-01
 -0.11845E-01
 -0.15242E-01
 -0.15047E-01
 -0.18455E-01
 -0.20257E-01
 -0.23415E-01
 -0.15946E-01
 -0.13600E-01
 -0.10441E-01
 -0.12631E-01
 -0.69432E-02
  0.66498E-02
 -0.12717E-02
  0.69578E-02
  0.60289E-02
  0.80997E-02
 -0.13386E-01
 -0.13620E-01
 -0.18586E-01
 -0.26832E-01
 -0.29065E-01
  0.49911E-02
 -0.11003E-01
 -0.11096E-01
 -0.31973E-02
 -0.25143E-01
 -0.29757E-01
 -0.25686E-01
 -0.29098E-01
 -0.81739E-02
 -0.10454E-02
  0.62886E-02
  0.29260E-01
  0.31826E-01
  0.27049E-01
  0.15348E-01
  0.84613E-03
  0.13402E-02
 -0.31716E-02
 -0.34678E-01
 -0.11345E-01
  0.39448E-02
  0.92583E-03
  0.25935E-02
 -0.27300E-01
 -0.22071E-01
 -0.27522E-01
  0.41706E-02
 -0.15341E-01
 -0.16936E-01
  0.12620E-01
  0.43292E-02
  0.35559E-02
 -0.17527E-01
 -0.16544E-01
 -0.20700E-01
 -0.13805E-01
 -0.17206E-01
 -0.97600E-02
 -0.79424E-02
 -0.40398E-02
 -0.50861E-02
 -0.21696E-03
 -0.92207E-03
  0.32994E-02
  0.26934E-02
  0.65206E-02
  0.55561E-02
  0.96642E-02
  0.94405E-02
  0.13082E-01
  0.13455E-01
  0.16604E-01
  0.17569E-01
  0.20067E-01
  0.21832E-01
  0.18692E-01
  0.88157E-02
  0.22969E-01
  0.25122E-01
  0.99258E-02
  0.25180E-01
  0.27384E-01
  0.20211E-01
  0.37066E-02
  0.28408E-01
  0.29731E-01
  0.28280E-01
  0.23362E-01
  0.31625E-01
  0.31830E-01
  0.17535E-02
  0.24955E-01
  0.23394E-01
  0.34819E-01
 -0.15706E-01
  0.10352E-01
  0.11096E-01
 -0.80989E-02
 -0.83907E-02
 -0.66551E-02
 -0.12201E-01
 -0.56492E-02
 -0.10499E-01
 -0.11190E-01
  0.34491E-01
 -0.42766E-02
  0.33364E-01
  0.12313E-01
  0.49979E-02
  0.55970E-02
  0.61901E-02
  0.61833E-02
 -0.90754E-02
 -0.14679E-01
  0.29684E-01
 -0.81051E-02
  0.30977E-01
  0.49224E-02
 -0.22945E-02
 -0.16963E-01
 -0.12572E-01
 -0.12466E-01
 -0.16728E-01
  0.53978E-02
  0.44994E-02
  0.46436E-02
  0.54308E-02
  0.51058E-02
  0.56229E-02
  0.48728E-02
  0.41311E-02
  0.41231E-02
  0.31394E-02
  0.33276E-02
  0.21850E-02
  0.25565E-02
  0.13301E-02
  0.18557E-02
  0.30085E-02
  0.24435E-02
  0.13326E-02
  0.20481E-02
  0.10873E-02
  0.19067E-02
  0.35192E-02
  0.12306E-02
  0.20560E-02
  0.26907E-02
  0.28377E-02
  0.24547E-02
 -0.30078E-02
 -0.11918E-01
 -0.14172E-01
 -0.12809E-01
 -0.14213E-01
 -0.12503E-01
 -0.14738E-01
 -0.12931E-01
 -0.10560E-01
 -0.10208E-01
 -0.97158E-02
 -0.63095E-02
 -0.49979E-02
 -0.24659E-03
  0.25242E-02
 -0.19218E-02
  0.47851E-02
  0.40019E-02
 -0.13437E-01
  0.31630E-01
  0.21288E-01
  0.66776E-02
 -0.93976E-02
  0.18165E-01
  0.18521E-01
 -0.13894E-01
  0.65193E-02
  0.71061E-02
 -0.20704E-02
  0.95575E-03
  0.11731E-01
  0.67007E-02
  0.54176E-02
  0.51821E-02
 -0.25832E-01
  0.29603E-01
 -0.25980E-02
 -0.20454E-02
 -0.35372E-02
 -0.10869E-02
 -0.21930E-02
 -0.16912E-03
  0.66819E-02
 -0.64579E-02
  0.39671E-02
  0.46521E-02
  0.31565E-02
  0.71041E-02
  0.32562E-02
 -0.12784E-02
  0.60792E-02
  0.67989E-02
 -0.45374E-02
  0.79100E-02
  0.17948E-01
 -0.10355E-01
  0.89744E-02
  0.13471E-01
  0.21917E-01
  0.79456E-02
 -0.18158E-01
 -0.25117E-01
 -0.27233E-01
 -0.31791E-01
  0.48321E-02
 -0.11671E-01
 -0.11499E-01
 -0.10954E-01
 -0.11491E-01
  0.66093E-02
 -0.29155E-01
 -0.33909E-01
 -0.56689E-02
 -0.16528E-01
 -0.15317E-01
 -0.17287E-01
  0.24651E-01
  0.23444E-01
  0.21952E-01
  0.22329E-01
  0.20663E-01
 -0.11850E-01
 -0.98214E-02
  0.24085E-02
  0.15430E-02
  0.38801E-02
  0.34462E-02
 -0.52127E-02
 -0.17443E-01
 -0.16761E-01
  0.36358E-02
  0.22876E-02
 -0.45416E-02
  0.63389E-02
  0.36119E-01
  0.38093E-01
 -0.11006E-01
 -0.10611E-01
  0.37204E-03
  0.88434E-03
  0.28915E-01
 -0.22046E-01
 -0.74014E-02
 -0.12046E-01
 -0.11701E-01
 -0.12174E-01
  0.10640E-01
  0.33294E-02
  0.92383E-02
 -0.12045E-01
 -0.16796E-02
 -0.15899E-01
  0.34237E-02
 -0.10898E-01
 -0.13811E-01
  0.18701E-02
 -0.42470E-02
  0.35446E-02
 -0.47960E-02
 -0.45427E-02
 -0.69747E-02
  0.47006E-02
 -0.23180E-01
  0.67268E-02
  0.64744E-02
  0.49569E-03
  0.52271E-02
 -0.99105E-02
  0.61594E-02
 -0.31469E-02
 -0.23118E-02
 -0.13547E-03
 -0.13680E-01
 -0.37540E-02
  0.39427E-02
 -0.14495E-01
 -0.12519E-01
 -0.12360E-01
 -0.12385E-01
 -0.18518E-01
 -0.18946E-01
 -0.13882E-01
  0.39735E-02
  0.57387E-02
  0.53865E-02
  0.56456E-02
  0.56566E-02
  0.54421E-02
  0.58428E-02
 -0.12645E-01
 -0.23491E-01
  0.40252E-02
  0.44546E-02
 -0.24856E-01
 -0.27056E-01
 -0.46198E-03
  0.30442E-02
  0.30599E-02
  0.25517E-02
  0.44141E-02
 -0.20369E-01
 -0.22213E-02
  0.19745E-02
 -0.11528E-01
 -0.11731E-01
 -0.12007E-01
 -0.32369E-01
 -0.29924E-01
 -0.34217E-01
 -0.41978E-01
 -0.29608E-01
  0.39026E-01
 -0.51767E-02
  0.25599E-02
  0.23438E-01
  0.22647E-01
 -0.91410E-02
  0.34904E-02
  0.29685E-01
  0.29691E-01
  0.50988E-03
  0.31868E-02
  0.25685E-02
  0.56959E-02
  0.51304E-02
  0.61274E-02
  0.77225E-02
  0.70162E-02
  0.71233E-02
 -0.11612E-01
 -0.40605E-02
 -0.28770E-03
 -0.12100E-02
 -0.12508E-01
  0.19612E-01
  0.18378E-01
  0.16850E-01
  0.15756E-01
  0.19552E-01
 -0.90817E-05
 -0.26663E-02
  0.11190E-01
 -0.24564E-02
 -0.17502E-02
 -0.11773E-01
 -0.11870E-01
 -0.12769E-01
 -0.13044E-01
 -0.12396E-01
  0.54271E-02
  0.51129E-02
  0.49095E-02
  0.48200E-02
  0.49602E-02
  0.47305E-02
 -0.78803E-02
 -0.16390E-01
 -0.15108E-01
 -0.20568E-01
  0.13391E-01
  0.12756E-01
 -0.10856E-01
 -0.11400E-01
 -0.97265E-02
 -0.10402E-01
 -0.63287E-02
 -0.16256E-02
  0.68620E-02
 -0.80518E-02
  0.19539E-01
  0.16825E-01
  0.25137E-01
  0.22314E-01
  0.15193E-01
  0.28260E-01
  0.17872E-03
  0.90480E-02
  0.63897E-02
 -0.13211E-01
 -0.13793E-01
 -0.44258E-02
 -0.26156E-01
 -0.21295E-01
 -0.35973E-01
 -0.31266E-01
 -0.35792E-01
  0.25958E-01
  0.11447E-01
  0.16733E-01
  0.17040E-01
  0.18573E-01
 -0.64268E-02
 -0.90017E-02
 -0.57997E-02
  0.61124E-02
  0.66673E-02
  0.57722E-02
  0.60940E-02
  0.69276E-02
 -0.39545E-02
 -0.41698E-02
 -0.41473E-02
 -0.31448E-02
 -0.36186E-02
  0.12894E-01
  0.13626E-01
 -0.11190E-01
 -0.17831E-01
  0.44510E-02
  0.15830E-02
 -0.83732E-03
  0.72449E-03
 -0.60593E-02
  0.48139E-02
  0.19483E-02
  0.40649E-02
  0.10001E-01
  0.92943E-02
 -0.21430E-01
 -0.20940E-01
 -0.20923E-01
 -0.18593E-01
  0.11596E-01
 -0.21977E-02
  0.28107E-03
  0.17418E-03
  0.41682E-02
 -0.14690E-01
 -0.16405E-01
 -0.15488E-01
 -0.16066E-01
 -0.15625E-01
 -0.15038E-01
 -0.55229E-02
 -0.19641E-01
 -0.22539E-03
  0.36954E-02
  0.50834E-02
 -0.12832E-01
  0.70814E-02
  0.63734E-02
 -0.14339E-01
 -0.13816E-01
 -0.14224E-01
 -0.13178E-01
 -0.12029E-02
  0.41388E-02
 -0.11806E-01
  0.46975E-02
  0.47853E-02
  0.51135E-02
  0.49137E-02
  0.71968E-02
  0.16812E-02
  0.28887E-01
  0.74631E-02
  0.70277E-02
  0.71231E-02
 -0.61676E-02
  0.16594E-01
  0.23089E-01
  0.27102E-01
  0.56534E-02
 -0.15069E-01
 -0.15251E-01
 -0.15869E-01
  0.34357E-01
  0.40326E-02
  0.15944E-01
  0.22586E-02
  0.25353E-01
 -0.12210E-01
  0.25203E-01
  0.26246E-01
 -0.26204E-01
 -0.76838E-02
 -0.12035E-01
  0.14137E-01
 -0.18325E-01
 -0.20231E-01
 -0.19234E-01
 -0.16676E-01
 -0.11281E-01
  0.22358E-02
  0.24892E-02
  0.28627E-01
  0.24654E-01
  0.33072E-01
 -0.21518E-01
 -0.19580E-01
 -0.18595E-01
 -0.27487E-01
  0.78541E-02
 -0.24381E-02
  0.53122E-03
 -0.13867E-01
 -0.34448E-01
 -0.37620E-01
 -0.42931E-01
 -0.35091E-01
  0.88995E-02
  0.60815E-02
 -0.87945E-03
  0.84080E-03
  0.32808E-02
  0.16747E-01
  0.18409E-01
  0.20133E-01
  0.14930E-01
 -0.10146E-01
 -0.90458E-02
 -0.20158E-01
 -0.21108E-01
 -0.18484E-01
  0.13811E-01
  0.18903E-01
  0.23500E-01
  0.33781E-01
  0.12938E-01
  0.30967E-02
 -0.20043E-02
 -0.13463E-01
 -0.13552E-01
  0.52953E-02
  0.50490E-02
  0.10072E-01
 -0.11666E-01
  0.40589E-02
 -0.91725E-02
 -0.10571E-01
  0.35893E-02
  0.37697E-02
  0.41283E-02
  0.42444E-02
  0.44381E-02
 -0.16359E-01
 -0.15987E-01
 -0.24385E-01
 -0.29721E-01
 -0.12715E-01
 -0.15151E-01
 -0.15144E-02
  0.49130E-02
 -0.89081E-02
 -0.94070E-02
  0.46191E-02
  0.38203E-01
  0.35427E-01
  0.38755E-01
  0.36046E-01
  0.38403E-01
  0.40031E-01
  0.37357E-02
  0.47422E-02
 -0.42923E-02
 -0.10588E-01
 -0.11006E-01
 -0.12501E-01
 -0.99638E-02
 -0.95029E-02
 -0.12248E-01
 -0.22727E-01
 -0.64446E-02
 -0.42562E-02
 -0.20182E-01
  0.94157E-02
 -0.17971E-01
 -0.27039E-01
 -0.36797E-01
 -0.12104E-01
  0.69543E-02
  0.41200E-01
 -0.38647E-01
 -0.14230E-01
 -0.12310E-01
 -0.13888E-01
 -0.11087E-01
 -0.11812E-01
 -0.16372E-01
 -0.34660E-01
 -0.15187E-02
 -0.74573E-02
 -0.82383E-02
 -0.16157E-01
  0.15476E-01
  0.60226E-02
 -0.78345E-02
 -0.10004E-01
 -0.62309E-02
 -0.65082E-02
 -0.74944E-02
 -0.68643E-02
 -0.16624E-01
 -0.16135E-01
 -0.16470E-01
 -0.38641E-02
 -0.40453E-02
 -0.19175E-01
 -0.12783E-02
  0.94468E-04
 -0.43799E-03
 -0.15441E-01
 -0.14912E-01
 -0.95297E-03
 -0.73980E-02
  0.28213E-01
  0.27810E-01
 -0.30924E-01
  0.24397E-01
  0.24083E-01
  0.25969E-01
 -0.16584E-01
 -0.16185E-01
 -0.14260E-01
  0.71093E-02
 -0.41692E-02
 -0.11994E-01
 -0.14463E-01
  0.45327E-02
  0.46262E-02
  0.44936E-02
  0.46352E-02
 -0.11406E-01
  0.70856E-03
 -0.11425E-01
 -0.11913E-01
  0.32323E-01
 -0.13612E-01
  0.72132E-02
  0.31588E-01
  0.24548E-02
 -0.97027E-02
 -0.21046E-01
 -0.11989E-02
 -0.10298E-01
 -0.19834E-01
 -0.19123E-01
 -0.28369E-01
 -0.13572E-02
 -0.31353E-01
 -0.26344E-01
 -0.34874E-01
 -0.11203E-01
 -0.25140E-01
  0.47567E-02
 -0.34316E-03
 -0.14137E-01
 -0.13990E-01
 -0.22198E-01
 -0.17363E-01
 -0.16656E-01
 -0.18692E-01
  0.81964E-03
 -0.45475E-04
 -0.17141E-01
  0.63263E-03
 -0.65145E-03
 -0.13802E-02
  0.71655E-04
  0.30232E-02
  0.16540E-02
  0.21205E-03
  0.42344E-02
  0.42608E-02
  0.58360E-02
  0.47154E-02
  0.29718E-02
  0.41842E-01
  0.41100E-01
  0.21428E-01
  0.23649E-01
  0.43717E-02
  0.37040E-02
  0.21112E-02
  0.27369E-02
  0.90978E-03
  0.10576E-03
 -0.14253E-02
 -0.22875E-02
 -0.44093E-02
 -0.36458E-02
 -0.53956E-02
 -0.74512E-02
 -0.59803E-02
  0.41352E-02
 -0.59455E-03
  0.28132E-02
  0.57555E-02
  0.77888E-02
  0.10630E-01
  0.11692E-01
  0.13540E-01
  0.13991E-01
  0.15920E-01
 -0.12610E-01
 -0.12938E-01
  0.23857E-01
 -0.14326E-01
 -0.12017E-01
 -0.57111E-03
  0.38544E-02
 -0.14005E-01
  0.14363E-01
 -0.12591E-01
 -0.92710E-02
  0.25402E-01
  0.26287E-01
  0.27405E-01
  0.64444E-02
 -0.12436E-01
  0.19384E-01
 -0.11571E-01
  0.47292E-02
  0.46795E-02
  0.46426E-02
  0.45450E-02
 -0.20708E-01
 -0.97903E-03
  0.20456E-01
  0.22128E-01
  0.22239E-01
  0.63326E-02
  0.57934E-02
  0.48552E-02
  0.51479E-02
  0.12228E-02
 -0.33513E-01
  0.90262E-02
  0.67575E-02
 -0.48237E-01
  0.94847E-03
 -0.26986E-02
 -0.27785E-02
 -0.73008E-02
 -0.68613E-02
  0.37029E-02
  0.21196E-02
  0.14263E-01
 -0.16068E-01
 -0.12150E-01
  0.56266E-02
  0.42893E-02
 -0.13450E-01
  0.54350E-02
  0.52631E-02