# vtk DataFile Version 2.0
Unstructured Grid UFVM-ECOMOD
ASCII
DATASET UNSTRUCTURED_GRID
 POINTS         1810  float
  0.00000E+00  0.00000E+00  0.00000E+00
  0.40000E+01  0.00000E+00  0.00000E+00
  0.40000E+01  0.20000E+01  0.00000E+00
  0.00000E+00  0.20000E+01  0.00000E+00
  0.12217E+01  0.98333E+00  0.00000E+00
  0.81167E+00  0.11389E+01  0.00000E+00
  0.12217E+01  0.12944E+01  0.00000E+00
  0.10000E+00  0.00000E+00  0.00000E+00
  0.20000E+00  0.00000E+00  0.00000E+00
  0.30000E+00  0.00000E+00  0.00000E+00
  0.40000E+00  0.00000E+00  0.00000E+00
  0.50000E+00  0.00000E+00  0.00000E+00
  0.60000E+00  0.00000E+00  0.00000E+00
  0.70000E+00  0.00000E+00  0.00000E+00
  0.80000E+00  0.00000E+00  0.00000E+00
  0.90000E+00  0.00000E+00  0.00000E+00
  0.10000E+01  0.00000E+00  0.00000E+00
  0.11000E+01  0.00000E+00  0.00000E+00
  0.12000E+01  0.00000E+00  0.00000E+00
  0.13000E+01  0.00000E+00  0.00000E+00
  0.14000E+01  0.00000E+00  0.00000E+00
  0.15000E+01  0.00000E+00  0.00000E+00
  0.16000E+01  0.00000E+00  0.00000E+00
  0.17000E+01  0.00000E+00  0.00000E+00
  0.18000E+01  0.00000E+00  0.00000E+00
  0.19000E+01  0.00000E+00  0.00000E+00
  0.20000E+01  0.00000E+00  0.00000E+00
  0.21000E+01  0.00000E+00  0.00000E+00
  0.22000E+01  0.00000E+00  0.00000E+00
  0.23000E+01  0.00000E+00  0.00000E+00
  0.24000E+01  0.00000E+00  0.00000E+00
  0.25000E+01  0.00000E+00  0.00000E+00
  0.26000E+01  0.00000E+00  0.00000E+00
  0.27000E+01  0.00000E+00  0.00000E+00
  0.28000E+01  0.00000E+00  0.00000E+00
  0.29000E+01  0.00000E+00  0.00000E+00
  0.30000E+01  0.00000E+00  0.00000E+00
  0.31000E+01  0.00000E+00  0.00000E+00
  0.32000E+01  0.00000E+00  0.00000E+00
  0.33000E+01  0.00000E+00  0.00000E+00
  0.34000E+01  0.00000E+00  0.00000E+00
  0.35000E+01  0.00000E+00  0.00000E+00
  0.36000E+01  0.00000E+00  0.00000E+00
  0.37000E+01  0.00000E+00  0.00000E+00
  0.38000E+01  0.00000E+00  0.00000E+00
  0.39000E+01  0.00000E+00  0.00000E+00
  0.40000E+01  0.10000E+00  0.00000E+00
  0.40000E+01  0.20000E+00  0.00000E+00
  0.40000E+01  0.30000E+00  0.00000E+00
  0.40000E+01  0.40000E+00  0.00000E+00
  0.40000E+01  0.50000E+00  0.00000E+00
  0.40000E+01  0.60000E+00  0.00000E+00
  0.40000E+01  0.70000E+00  0.00000E+00
  0.40000E+01  0.80000E+00  0.00000E+00
  0.40000E+01  0.90000E+00  0.00000E+00
  0.40000E+01  0.10000E+01  0.00000E+00
  0.40000E+01  0.11000E+01  0.00000E+00
  0.40000E+01  0.12000E+01  0.00000E+00
  0.40000E+01  0.13000E+01  0.00000E+00
  0.40000E+01  0.14000E+01  0.00000E+00
  0.40000E+01  0.15000E+01  0.00000E+00
  0.40000E+01  0.16000E+01  0.00000E+00
  0.40000E+01  0.17000E+01  0.00000E+00
  0.40000E+01  0.18000E+01  0.00000E+00
  0.40000E+01  0.19000E+01  0.00000E+00
  0.39000E+01  0.20000E+01  0.00000E+00
  0.38000E+01  0.20000E+01  0.00000E+00
  0.37000E+01  0.20000E+01  0.00000E+00
  0.36000E+01  0.20000E+01  0.00000E+00
  0.35000E+01  0.20000E+01  0.00000E+00
  0.34000E+01  0.20000E+01  0.00000E+00
  0.33000E+01  0.20000E+01  0.00000E+00
  0.32000E+01  0.20000E+01  0.00000E+00
  0.31000E+01  0.20000E+01  0.00000E+00
  0.30000E+01  0.20000E+01  0.00000E+00
  0.29000E+01  0.20000E+01  0.00000E+00
  0.28000E+01  0.20000E+01  0.00000E+00
  0.27000E+01  0.20000E+01  0.00000E+00
  0.26000E+01  0.20000E+01  0.00000E+00
  0.25000E+01  0.20000E+01  0.00000E+00
  0.24000E+01  0.20000E+01  0.00000E+00
  0.23000E+01  0.20000E+01  0.00000E+00
  0.22000E+01  0.20000E+01  0.00000E+00
  0.21000E+01  0.20000E+01  0.00000E+00
  0.20000E+01  0.20000E+01  0.00000E+00
  0.19000E+01  0.20000E+01  0.00000E+00
  0.18000E+01  0.20000E+01  0.00000E+00
  0.17000E+01  0.20000E+01  0.00000E+00
  0.16000E+01  0.20000E+01  0.00000E+00
  0.15000E+01  0.20000E+01  0.00000E+00
  0.14000E+01  0.20000E+01  0.00000E+00
  0.13000E+01  0.20000E+01  0.00000E+00
  0.12000E+01  0.20000E+01  0.00000E+00
  0.11000E+01  0.20000E+01  0.00000E+00
  0.10000E+01  0.20000E+01  0.00000E+00
  0.90000E+00  0.20000E+01  0.00000E+00
  0.80000E+00  0.20000E+01  0.00000E+00
  0.70000E+00  0.20000E+01  0.00000E+00
  0.60000E+00  0.20000E+01  0.00000E+00
  0.50000E+00  0.20000E+01  0.00000E+00
  0.40000E+00  0.20000E+01  0.00000E+00
  0.30000E+00  0.20000E+01  0.00000E+00
  0.20000E+00  0.20000E+01  0.00000E+00
  0.10000E+00  0.20000E+01  0.00000E+00
  0.00000E+00  0.19000E+01  0.00000E+00
  0.00000E+00  0.18000E+01  0.00000E+00
  0.00000E+00  0.17000E+01  0.00000E+00
  0.00000E+00  0.16000E+01  0.00000E+00
  0.00000E+00  0.15000E+01  0.00000E+00
  0.00000E+00  0.14000E+01  0.00000E+00
  0.00000E+00  0.13000E+01  0.00000E+00
  0.00000E+00  0.12000E+01  0.00000E+00
  0.00000E+00  0.11000E+01  0.00000E+00
  0.00000E+00  0.10000E+01  0.00000E+00
  0.00000E+00  0.90000E+00  0.00000E+00
  0.00000E+00  0.80000E+00  0.00000E+00
  0.00000E+00  0.70000E+00  0.00000E+00
  0.00000E+00  0.60000E+00  0.00000E+00
  0.00000E+00  0.50000E+00  0.00000E+00
  0.00000E+00  0.40000E+00  0.00000E+00
  0.00000E+00  0.30000E+00  0.00000E+00
  0.00000E+00  0.20000E+00  0.00000E+00
  0.00000E+00  0.10000E+00  0.00000E+00
  0.11989E+01  0.99198E+00  0.00000E+00
  0.11761E+01  0.10006E+01  0.00000E+00
  0.11533E+01  0.10093E+01  0.00000E+00
  0.11306E+01  0.10179E+01  0.00000E+00
  0.11078E+01  0.10265E+01  0.00000E+00
  0.10850E+01  0.10352E+01  0.00000E+00
  0.10622E+01  0.10438E+01  0.00000E+00
  0.10394E+01  0.10525E+01  0.00000E+00
  0.10167E+01  0.10611E+01  0.00000E+00
  0.99389E+00  0.10697E+01  0.00000E+00
  0.97111E+00  0.10784E+01  0.00000E+00
  0.94833E+00  0.10870E+01  0.00000E+00
  0.92556E+00  0.10957E+01  0.00000E+00
  0.90278E+00  0.11043E+01  0.00000E+00
  0.88000E+00  0.11130E+01  0.00000E+00
  0.85722E+00  0.11216E+01  0.00000E+00
  0.83444E+00  0.11302E+01  0.00000E+00
  0.83444E+00  0.11475E+01  0.00000E+00
  0.85722E+00  0.11562E+01  0.00000E+00
  0.88000E+00  0.11648E+01  0.00000E+00
  0.90278E+00  0.11735E+01  0.00000E+00
  0.92556E+00  0.11821E+01  0.00000E+00
  0.94833E+00  0.11907E+01  0.00000E+00
  0.97111E+00  0.11994E+01  0.00000E+00
  0.99389E+00  0.12080E+01  0.00000E+00
  0.10167E+01  0.12167E+01  0.00000E+00
  0.10394E+01  0.12253E+01  0.00000E+00
  0.10622E+01  0.12340E+01  0.00000E+00
  0.10850E+01  0.12426E+01  0.00000E+00
  0.11078E+01  0.12512E+01  0.00000E+00
  0.11306E+01  0.12599E+01  0.00000E+00
  0.11533E+01  0.12685E+01  0.00000E+00
  0.11761E+01  0.12772E+01  0.00000E+00
  0.11989E+01  0.12858E+01  0.00000E+00
  0.12217E+01  0.12705E+01  0.00000E+00
  0.12217E+01  0.12466E+01  0.00000E+00
  0.12217E+01  0.12227E+01  0.00000E+00
  0.12217E+01  0.11987E+01  0.00000E+00
  0.12217E+01  0.11748E+01  0.00000E+00
  0.12217E+01  0.11508E+01  0.00000E+00
  0.12217E+01  0.11269E+01  0.00000E+00
  0.12217E+01  0.11030E+01  0.00000E+00
  0.12217E+01  0.10791E+01  0.00000E+00
  0.12217E+01  0.10551E+01  0.00000E+00
  0.12217E+01  0.10312E+01  0.00000E+00
  0.12217E+01  0.10073E+01  0.00000E+00
  0.12429E+01  0.10188E+01  0.00000E+00
  0.12399E+01  0.11882E+01  0.00000E+00
  0.21377E+01  0.78680E-01  0.00000E+00
  0.21538E+01  0.19174E+01  0.00000E+00
  0.83774E+00  0.11061E+01  0.00000E+00
  0.97541E+00  0.10554E+01  0.00000E+00
  0.11166E+01  0.10045E+01  0.00000E+00
  0.29463E+01  0.19156E+01  0.00000E+00
  0.26515E+01  0.81480E-01  0.00000E+00
  0.25477E+01  0.19110E+01  0.00000E+00
  0.30502E+01  0.68680E-01  0.00000E+00
  0.83912E+00  0.11750E+01  0.00000E+00
  0.95224E+00  0.12148E+01  0.00000E+00
  0.10661E+01  0.12580E+01  0.00000E+00
  0.11804E+01  0.13002E+01  0.00000E+00
  0.39119E+01  0.10505E+01  0.00000E+00
  0.17555E+01  0.84130E-01  0.00000E+00
  0.64649E+00  0.99150E-01  0.00000E+00
  0.17446E+01  0.19250E+01  0.00000E+00
  0.86600E-01  0.65000E+00  0.00000E+00
  0.14551E+01  0.78430E-01  0.00000E+00
  0.96058E+00  0.81690E-01  0.00000E+00
  0.33501E+01  0.19134E+01  0.00000E+00
  0.39162E+01  0.63967E+00  0.00000E+00
  0.82470E-01  0.14561E+01  0.00000E+00
  0.55009E+00  0.19215E+01  0.00000E+00
  0.85020E-01  0.95314E+00  0.00000E+00
  0.39167E+01  0.13623E+01  0.00000E+00
  0.33616E+01  0.95540E-01  0.00000E+00
  0.90682E+00  0.10774E+01  0.00000E+00
  0.10433E+01  0.10284E+01  0.00000E+00
  0.11799E+01  0.97718E+00  0.00000E+00
  0.12429E+01  0.10931E+01  0.00000E+00
  0.12436E+01  0.12583E+01  0.00000E+00
  0.85035E+00  0.19198E+01  0.00000E+00
  0.14457E+01  0.19288E+01  0.00000E+00
  0.11516E+01  0.19130E+01  0.00000E+00
  0.36450E+01  0.85340E-01  0.00000E+00
  0.84610E-01  0.34945E+00  0.00000E+00
  0.36500E+01  0.19134E+01  0.00000E+00
  0.35776E+00  0.89100E-01  0.00000E+00
  0.39086E+01  0.16476E+01  0.00000E+00
  0.39134E+01  0.35000E+00  0.00000E+00
  0.83900E-01  0.11460E+01  0.00000E+00
  0.35715E+00  0.19076E+01  0.00000E+00
  0.83410E-01  0.16549E+01  0.00000E+00
  0.12495E+01  0.81910E-01  0.00000E+00
  0.19505E+01  0.76550E-01  0.00000E+00
  0.23503E+01  0.82860E-01  0.00000E+00
  0.19504E+01  0.19252E+01  0.00000E+00
  0.23461E+01  0.19181E+01  0.00000E+00
  0.28427E+01  0.83720E-01  0.00000E+00
  0.31542E+01  0.19172E+01  0.00000E+00
  0.27508E+01  0.19148E+01  0.00000E+00
  0.39150E+01  0.84994E+00  0.00000E+00
  0.88020E+00  0.11939E+01  0.00000E+00
  0.99745E+00  0.12340E+01  0.00000E+00
  0.12424E+01  0.11389E+01  0.00000E+00
  0.11119E+01  0.12747E+01  0.00000E+00
  0.78910E-01  0.18478E+01  0.00000E+00
  0.38489E+01  0.73890E-01  0.00000E+00
  0.86600E-01  0.15000E+00  0.00000E+00
  0.38461E+01  0.19156E+01  0.00000E+00
  0.83750E-01  0.10487E+01  0.00000E+00
  0.16314E+00  0.10008E+01  0.00000E+00
  0.16591E+00  0.91287E+00  0.00000E+00
  0.23730E+00  0.95594E+00  0.00000E+00
  0.24013E+00  0.87512E+00  0.00000E+00
  0.30661E+00  0.91623E+00  0.00000E+00
  0.30296E+00  0.99591E+00  0.00000E+00
  0.30938E+00  0.83944E+00  0.00000E+00
  0.37444E+00  0.87856E+00  0.00000E+00
  0.37563E+00  0.80503E+00  0.00000E+00
  0.43612E+00  0.84332E+00  0.00000E+00
  0.43924E+00  0.77347E+00  0.00000E+00
  0.49710E+00  0.80859E+00  0.00000E+00
  0.50063E+00  0.74182E+00  0.00000E+00
  0.55658E+00  0.77549E+00  0.00000E+00
[...]
 POINT_DATA         1810
  
 SCALARS WL      float 1
 LOOKUP_TABLE default
  0.13135E-01
  0.18850E-02
  0.40254E-04
  0.15047E-01
 -0.21820E-01
  0.26719E-01
 -0.28425E-01
  0.13326E-01
  0.13651E-01
  0.13892E-01
  0.13932E-01
  0.13692E-01
  0.13138E-01
  0.12235E-01
  0.10982E-01
  0.95782E-02
  0.81229E-02
  0.67396E-02
  0.54558E-02
  0.44719E-02
  0.38121E-02
  0.35954E-02
  0.38094E-02
  0.43634E-02
  0.51917E-02
  0.61993E-02
  0.71817E-02
  0.79290E-02
  0.83497E-02
  0.83024E-02
  0.79172E-02
  0.72161E-02
  0.64392E-02
  0.57561E-02
  0.52502E-02
  0.49449E-02
  0.50402E-02
  0.52797E-02
  0.59597E-02
  0.67461E-02
  0.75277E-02
  0.81128E-02
  0.81379E-02
  0.73889E-02
  0.57949E-02
  0.35455E-02
  0.00000E+00
  0.00000E+00
  0.00000E+00
  0.00000E+00
  0.00000E+00
  0.00000E+00
  0.00000E+00
  0.00000E+00
  0.00000E+00
  0.00000E+00
  0.00000E+00
  0.00000E+00
  0.00000E+00
  0.00000E+00
  0.00000E+00
  0.00000E+00
  0.00000E+00
  0.00000E+00
  0.00000E+00
 -0.99331E-04
 -0.64548E-04
  0.24124E-03
  0.74379E-03
  0.15398E-02
  0.24924E-02
  0.37177E-02
  0.50688E-02
  0.62647E-02
  0.72710E-02
  0.77131E-02
  0.76348E-02
  0.71325E-02
  0.65567E-02
  0.58319E-02
  0.52146E-02
  0.46942E-02
  0.42214E-02
  0.38244E-02
  0.36866E-02
  0.37698E-02
  0.39677E-02
  0.42545E-02
  0.46487E-02
  0.51259E-02
  0.58085E-02
  0.67121E-02
  0.76077E-02
  0.86039E-02
  0.95417E-02
  0.10436E-01
  0.11268E-01
  0.11983E-01
  0.12587E-01
  0.13101E-01
  0.13574E-01
  0.13994E-01
  0.14408E-01
  0.14810E-01
  0.15100E-01
  0.15157E-01
  0.15238E-01
  0.15332E-01
  0.15427E-01
  0.15495E-01
  0.15515E-01
  0.15474E-01
  0.15358E-01
  0.15174E-01
  0.14934E-01
  0.14653E-01
  0.14345E-01
  0.14046E-01
  0.13774E-01
  0.13549E-01
  0.13359E-01
  0.13221E-01
  0.13135E-01
 -0.10683E-01
 -0.63844E-02
 -0.29009E-02
 -0.77135E-03
  0.25992E-02
  0.50469E-02
  0.56560E-02
  0.75354E-02
  0.91650E-02
  0.10678E-01
  0.11781E-01
  0.13455E-01
  0.14706E-01
  0.16821E-01
  0.18252E-01
  0.20141E-01
  0.23222E-01
  0.26278E-01
  0.23108E-01
  0.21861E-01
  0.19689E-01
  0.18778E-01
  0.16727E-01
  0.15831E-01
  0.14196E-01
  0.12907E-01
  0.11526E-01
  0.98621E-02
  0.80846E-02
  0.62095E-02
  0.38142E-02
  0.47392E-03
 -0.35188E-02
 -0.96238E-02
 -0.36333E-01
 -0.32978E-01
 -0.30299E-01
 -0.29755E-01
 -0.31334E-01
 -0.34067E-01
 -0.37021E-01
 -0.38415E-01
 -0.37741E-01
 -0.35034E-01
 -0.31501E-01
 -0.28626E-01
 -0.29836E-01
 -0.30847E-01
  0.81341E-02
  0.41312E-02
  0.21053E-01
  0.11277E-01
  0.48734E-03
  0.74262E-02
  0.60929E-02
  0.61807E-02
  0.51568E-02
  0.23545E-01
  0.16317E-01
  0.90069E-02
 -0.55836E-02
 -0.32242E-03
  0.48193E-02
  0.12715E-01
  0.40386E-02
  0.14259E-01
  0.36147E-02
  0.87349E-02
  0.31452E-02
  0.30964E-02
  0.15324E-01
  0.12909E-01
  0.15042E-01
 -0.56147E-02
  0.72072E-02
  0.15551E-01
  0.65838E-02
 -0.78638E-02
 -0.39262E-01
 -0.35531E-01
  0.10962E-01
  0.53484E-02
  0.79943E-02
  0.78539E-02
  0.13576E-01
  0.53011E-03
  0.13933E-01
 -0.19005E-02
  0.25785E-02
  0.15353E-01
  0.13796E-01
  0.15108E-01
  0.48858E-02
  0.67549E-02
  0.81380E-02
  0.37244E-02
  0.50863E-02
  0.51653E-02
  0.56699E-02
  0.73655E-02
  0.23752E-02
  0.20527E-01
  0.13473E-01
 -0.36619E-01
  0.52999E-02
  0.14957E-01
  0.46849E-02
  0.13346E-01
 -0.21495E-03
  0.15226E-01
  0.15104E-01
  0.14938E-01
  0.15019E-01
  0.14852E-01
  0.14940E-01
  0.15112E-01
  0.14751E-01
  0.14846E-01
  0.14614E-01
  0.14697E-01
  0.14426E-01
  0.14464E-01
  0.14149E-01
  0.14130E-01
  0.13763E-01
  0.13651E-01
  0.13274E-01
  0.13023E-01
  0.14851E-01
  0.12693E-01
  0.12278E-01
  0.12737E-01
  0.11806E-01
  0.11407E-01
  0.10730E-01
  0.10435E-01
  0.95932E-02
  0.94007E-02
  0.83984E-02
  0.85704E-02
  0.72285E-02
  0.72050E-02
  0.58869E-02
  0.60660E-02
  0.46955E-02
  0.13461E-01
  0.12391E-01
  0.50283E-02
  0.35926E-02
  0.29675E-02
  0.19236E-02
  0.27430E-02
  0.12804E-02
  0.12324E-03
 -0.24458E-03
 -0.17510E-02
 -0.17339E-02
 -0.20785E-03
 -0.12827E-02
 -0.32010E-02
 -0.22222E-02
 -0.46174E-02
 -0.28446E-02
 -0.56913E-02
 -0.28515E-02
 -0.62067E-02
 -0.22945E-02
 -0.57956E-02
 -0.91816E-03
 -0.44201E-02
  0.77526E-03
 -0.29054E-02
  0.17363E-02
 -0.22638E-02
  0.13659E-02
 -0.42793E-02
 -0.17146E-02
  0.39935E-02
  0.51431E-03
 -0.66095E-02
 -0.39481E-02
  0.23418E-02
 -0.20886E-02
 -0.10689E-01
  0.29409E-02
 -0.24776E-02
  0.91882E-03
  0.16828E-02
 -0.50048E-02
 -0.81156E-02
 -0.11638E-01
 -0.12157E-01
 -0.15344E-01
 -0.13511E-01
 -0.14593E-01
 -0.10018E-01
 -0.89054E-02
 -0.11949E-01
 -0.65818E-02
 -0.28694E-02
 -0.23813E-02
  0.82355E-03
  0.17971E-04
 -0.29708E-02
 -0.16373E-02
  0.15704E-02
 -0.45525E-03
 -0.62222E-03
  0.27596E-02
  0.74248E-03
 -0.29326E-02
 -0.16963E-02
  0.13464E-02
 -0.14285E-02
 -0.82720E-02
  0.85796E-03
 -0.38159E-02
 -0.40666E-02
  0.65557E-02
 -0.44678E-02
 -0.54655E-02
 -0.36490E-02
 -0.39195E-02
  0.48475E-02
  0.80612E-02
  0.65486E-02
 -0.49921E-02
 -0.74957E-02
 -0.11621E-01
  0.73793E-02
 -0.13354E-02
  0.82141E-02
  0.74630E-02
  0.10263E-01
  0.62709E-02
 -0.29085E-02
  0.24970E-03
 -0.79772E-02
  0.79527E-02
  0.77452E-02
 -0.80369E-03
  0.19195E-02
  0.26729E-02
  0.71335E-02
  0.81701E-02
  0.75978E-02
  0.72987E-02
  0.76442E-02
  0.70629E-02
  0.69052E-02
  0.63302E-02
  0.63397E-03
 -0.23100E-02
  0.26179E-02
  0.14139E-01
  0.14419E-01
  0.76257E-02
  0.71192E-02
 -0.13034E-02
  0.21690E-02
  0.76172E-02
  0.71045E-02
  0.78269E-02
  0.74471E-02
  0.69966E-02
 -0.83966E-02
 -0.48405E-02
  0.35347E-02
  0.27288E-02
  0.48101E-02
  0.41294E-02
  0.54669E-02
  0.50445E-02
  0.34065E-02
  0.47034E-02
  0.31061E-02
  0.48152E-02
  0.37130E-02
  0.57793E-02
  0.55232E-02
  0.50187E-02
  0.22337E-02
  0.60841E-02
  0.65188E-02
  0.62570E-02
  0.40359E-02
 -0.11234E-01
 -0.72300E-02
 -0.73909E-02
 -0.38085E-02
 -0.25617E-02
  0.21063E-04
  0.15025E-02
  0.32392E-02
  0.17248E-02
 -0.67394E-03
  0.28447E-02
  0.93577E-03
  0.33833E-02
  0.16192E-02
  0.31790E-02
  0.94696E-03
  0.25794E-02
 -0.10186E-03
  0.19060E-02
 -0.80472E-03
 -0.48138E-02
 -0.52913E-02
 -0.64772E-03
 -0.37475E-02
  0.26909E-03
 -0.12565E-02
 -0.67027E-02
 -0.18711E-02
  0.76945E-03
  0.78805E-03
 -0.11179E-03
  0.19435E-02
  0.32188E-02
  0.15596E-02
  0.17429E-02
  0.10029E-02
 -0.73137E-04
  0.17418E-03
 -0.15709E-02
  0.18851E-04
 -0.15588E-02
  0.81936E-03
  0.43207E-03
  0.25280E-02
  0.28446E-02
  0.45928E-02
  0.53837E-02
  0.65836E-02
  0.76126E-02
  0.50993E-03
  0.13527E-02
  0.26430E-02
  0.83052E-02
  0.94003E-02
  0.90391E-02
  0.10624E-01
  0.10479E-01
  0.11872E-01
  0.11739E-01
  0.12899E-01
  0.12523E-01
  0.13516E-01
  0.14207E-01
  0.14475E-01
  0.13822E-01
  0.14592E-01
  0.15353E-01
  0.15258E-01
  0.16101E-01
  0.15772E-01
  0.15059E-01
  0.15427E-01
  0.16102E-01
  0.15655E-01
  0.16236E-01
  0.14859E-01
  0.15735E-01
  0.16184E-01
  0.15699E-01
  0.15387E-01
  0.16864E-01
  0.16284E-01
  0.86956E-02
  0.10320E-01
 -0.12250E-01
  0.16008E-01
  0.16727E-01
  0.15615E-01
  0.16258E-01
  0.16916E-01
 -0.11829E-02
  0.34899E-03
 -0.64935E-02
 -0.10901E-01
 -0.50873E-02
 -0.20694E-01
 -0.15696E-01
 -0.32884E-01
  0.44615E-02
  0.26684E-02
 -0.36186E-01
 -0.48099E-01
 -0.44348E-01
 -0.56266E-01
 -0.56774E-01
 -0.60544E-01
 -0.16495E-01
  0.53821E-02
 -0.14103E-01
  0.96877E-02
  0.45229E-02
  0.61355E-02
  0.54185E-02
 -0.99519E-02
  0.13962E-01
  0.13261E-01
  0.13449E-01
  0.53452E-02
  0.65118E-02
  0.56195E-02
  0.65021E-03
  0.21918E-02
  0.35558E-02
 -0.38677E-02
  0.67445E-02
  0.60070E-02
  0.17045E-02
  0.21464E-02
  0.57409E-02
  0.67396E-02
 -0.57478E-01
 -0.58348E-01
 -0.58641E-01
 -0.54562E-01
 -0.94039E-03
  0.42749E-02
  0.83523E-02
  0.10321E-01
 -0.45033E-04
  0.33857E-02
  0.16353E-01
  0.16967E-01
  0.17729E-01
  0.17726E-01
  0.16821E-01
  0.17535E-01
  0.58377E-02
  0.97823E-03
 -0.51794E-01
 -0.39940E-01
  0.59269E-02
  0.87489E-02
  0.55037E-02
  0.45447E-02
  0.45786E-02
  0.37696E-02
  0.39129E-02
  0.32718E-02
  0.50617E-02
  0.31004E-02
 -0.32743E-03
  0.14808E-03
 -0.41141E-02
 -0.26529E-02
  0.16576E-02
  0.43355E-03
  0.72388E-02
  0.67662E-02
  0.56696E-02
  0.87967E-02
  0.75932E-02
  0.90969E-02
  0.79198E-02
  0.95509E-02
  0.62241E-02
  0.64629E-02
  0.46472E-02
  0.47680E-02
  0.27926E-02
  0.67835E-02
  0.16462E-01
  0.16757E-01
  0.17741E-01
  0.16800E-01
  0.28124E-02
  0.76234E-02
 -0.50545E-01
  0.28349E-02
  0.56429E-03
  0.81599E-03
 -0.17019E-02
 -0.34658E-03
 -0.22879E-02
  0.62661E-02
  0.11933E-01
  0.74978E-02
  0.18739E-01
  0.60637E-03
  0.12217E-01
  0.13451E-01
  0.60173E-02
 -0.17641E-02
  0.15958E-01
  0.15754E-01
  0.16528E-01
  0.15265E-01
  0.15822E-01
  0.71639E-02
  0.14431E-01
  0.14742E-01
  0.12761E-01
  0.79409E-02
  0.78297E-02
  0.88503E-02
 -0.46011E-01
  0.98889E-02
 -0.35866E-02
  0.13043E-01
 -0.52922E-01
 -0.46365E-01
 -0.47429E-01
 -0.39523E-01
  0.28318E-02
  0.30626E-02
  0.15890E-01
  0.57573E-02
 -0.37016E-01
 -0.30221E-01
 -0.31096E-01
 -0.23570E-01
  0.73116E-02
  0.13766E-01
  0.14900E-01
  0.45783E-02
  0.43934E-02
  0.35911E-02
 -0.23747E-01
 -0.17833E-01
 -0.16942E-01
 -0.12836E-01
 -0.68694E-02
  0.14900E-01
  0.38020E-02
  0.39787E-02
  0.45866E-02
  0.55513E-03
  0.29672E-02
  0.16107E-01
  0.52773E-02
  0.60269E-02
  0.62437E-03
  0.37806E-02
  0.66102E-02
 -0.44911E-01
 -0.36099E-01
 -0.13488E-01
 -0.18816E-01
 -0.93095E-02
  0.79969E-02
  0.44351E-02
  0.59855E-02
 -0.46276E-02
  0.60287E-02
  0.26977E-02
  0.13310E-01
  0.13354E-01
  0.13215E-01
  0.11933E-01
  0.11803E-01
  0.27992E-02
  0.16401E-02
  0.77285E-02
  0.47979E-02
  0.50083E-02
  0.39795E-02
  0.60264E-02
 -0.10866E-02
  0.18509E-01
  0.19798E-01
 -0.24570E-01
  0.28128E-02
  0.26946E-02
  0.30891E-02
  0.66269E-02
 -0.18471E-01
 -0.14753E-01
  0.19176E-01
  0.20602E-01
  0.19497E-01
  0.20715E-01
  0.43114E-02
  0.13580E-01
  0.13295E-01
  0.13752E-01
  0.13507E-01
  0.13919E-01
 -0.13164E-01
  0.89085E-02
  0.99611E-02
  0.54572E-02
  0.51407E-02
 -0.42117E-01
  0.16611E-01
  0.15752E-01
  0.99370E-02
  0.10884E-01
  0.10920E-01
  0.11711E-01
  0.11728E-01
  0.12412E-01
  0.12436E-01
  0.12989E-01
  0.12990E-01
  0.13437E-01
  0.13452E-01
  0.13750E-01
  0.13791E-01
  0.13951E-01
  0.13916E-01
  0.13464E-01
  0.61718E-02
  0.15320E-01
  0.16363E-01
  0.15721E-01
  0.17007E-01
  0.17789E-01
  0.19306E-01
  0.16862E-02
  0.12463E-01
  0.64069E-02
  0.12800E-01
  0.14033E-01
  0.14066E-01
  0.14184E-01
  0.63161E-02
  0.53763E-02
  0.30184E-02
  0.10447E-01
  0.13164E-01
  0.66638E-02
  0.14637E-01
  0.75778E-02
  0.72102E-02
  0.67731E-02
 -0.17325E-02
  0.90613E-02
 -0.37118E-02
 -0.54467E-02
 -0.55341E-01
 -0.49360E-01
 -0.50541E-01
  0.19956E-01
 -0.37050E-01
 -0.10094E-01
  0.57411E-02
 -0.28741E-01
 -0.11448E-01
 -0.75501E-02
 -0.93837E-02
 -0.93263E-02
  0.10893E-01
  0.75071E-02
  0.10014E-01
  0.10851E-01
  0.28281E-02
  0.31965E-02
  0.22536E-02
 -0.13978E-01
 -0.27512E-02
 -0.13013E-01
 -0.79176E-02
 -0.18178E-01
 -0.14149E-01
  0.13737E-01
  0.14087E-01
  0.14267E-01
  0.14403E-01
  0.14585E-01
  0.14285E-01
  0.14692E-01
  0.14838E-01
  0.14120E-01
  0.55287E-02
  0.54449E-02
  0.55658E-02
  0.39195E-02
  0.11508E-01
  0.10210E-01
  0.97800E-02
  0.85405E-02
  0.34413E-02
  0.36145E-02
  0.32655E-02
  0.33327E-02
  0.13289E-01
  0.13042E-01
  0.86983E-02
  0.20032E-01
 -0.39415E-01
 -0.33679E-01
  0.77854E-03
 -0.20594E-02
  0.32809E-02
 -0.81828E-02
  0.60269E-02
  0.54161E-02
 -0.29364E-01
  0.92765E-02
  0.45454E-02
  0.39734E-02
  0.38600E-02
  0.34830E-02
  0.27126E-02
  0.29501E-02
  0.39072E-02
  0.34526E-02
  0.46097E-02
  0.41888E-02
  0.54909E-02
  0.31806E-02
 -0.24372E-01
 -0.21188E-01
 -0.20753E-01
  0.57248E-02
  0.62962E-02
 -0.23540E-01
 -0.16764E-01
 -0.14714E-01
  0.18147E-01
  0.18612E-01
  0.18109E-01
  0.60561E-02
  0.60682E-02
 -0.39821E-02
 -0.57339E-02
 -0.44329E-02
  0.43924E-02
  0.61524E-02
  0.34848E-02
 -0.23094E-02
 -0.28749E-02
 -0.31072E-03
 -0.40732E-02
 -0.32171E-02
 -0.45976E-02
 -0.37347E-02
 -0.87463E-03
 -0.14030E-02
 -0.53017E-02
  0.16274E-02
 -0.23127E-02
 -0.64076E-02
 -0.84586E-02
 -0.86177E-02
  0.13196E-01
  0.11801E-01
  0.43814E-02
  0.55513E-02
 -0.16528E-02
 -0.45725E-02
 -0.24088E-02
 -0.58734E-03
  0.51472E-02
  0.15832E-01
  0.15554E-01
  0.15436E-01
  0.56173E-02
 -0.18365E-01
 -0.21092E-01
  0.33999E-02
 -0.89159E-02
  0.53603E-02
  0.52618E-02
  0.19771E-02
 -0.74951E-03
  0.17115E-02
  0.59049E-03
  0.63710E-02
  0.14545E-01
 -0.67446E-02
 -0.77998E-02
 -0.34246E-02
 -0.54127E-02
  0.93128E-02
  0.12518E-01
  0.12182E-01
  0.88740E-02
 -0.19305E-01
  0.22445E-01
  0.82574E-02
  0.12488E-01
  0.60103E-02
  0.66531E-02
  0.72685E-02
  0.72496E-02
  0.13895E-01
  0.33342E-02
  0.34526E-02
 -0.18040E-02
  0.59410E-02
  0.13494E-02
  0.12995E-01
  0.13504E-01
  0.13783E-01
 -0.30305E-01
 -0.54618E-02
 -0.69655E-02
  0.56279E-02
  0.64003E-02
  0.63100E-02
  0.15565E-01
  0.15240E-01
  0.12003E-02
  0.40600E-02
 -0.34633E-01
  0.66734E-02
  0.72107E-02
  0.63108E-02
  0.14000E-01
  0.10179E-01
  0.79003E-02
  0.12771E-01
  0.14493E-01
  0.15498E-01
 -0.10283E-01
 -0.12255E-02
  0.66619E-02
  0.16196E-01
 -0.45147E-01
 -0.41500E-01
 -0.44977E-01
  0.77156E-02
  0.77769E-02
  0.15120E-01
 -0.59122E-02
 -0.62303E-02
  0.53914E-02
  0.55909E-02
  0.55728E-02
  0.59458E-02
 -0.16013E-01
 -0.11563E-01
  0.28241E-02
  0.20090E-02
  0.80662E-02
  0.80407E-02
  0.93880E-02
  0.36674E-02
  0.36860E-02
  0.15056E-01
  0.14936E-01
  0.15035E-01
  0.15016E-01
  0.15149E-01
  0.15196E-01
  0.15233E-01
  0.15255E-01
  0.15262E-01
  0.58153E-02
  0.34784E-02
 -0.60695E-02
  0.55765E-02
  0.61253E-02
  0.65761E-02
  0.10600E-01
  0.33819E-02
  0.28865E-02
  0.66336E-02
  0.14277E-01
  0.13575E-02
 -0.11316E-01
  0.11587E-01
 -0.47748E-03
 -0.19054E-01
 -0.51289E-02
  0.53445E-02
  0.52336E-02
  0.15365E-01
  0.15293E-01
 -0.39006E-01
 -0.66872E-02
 -0.75210E-02
  0.30227E-02
  0.64248E-02
  0.14469E-01
 -0.22999E-01
 -0.14068E-01
 -0.14440E-01
 -0.83962E-02
 -0.79839E-02
 -0.52668E-02
 -0.45164E-01
 -0.39148E-01
  0.14477E-01
  0.14420E-01
  0.24478E-02
  0.17466E-02
  0.12011E-01
  0.25281E-02
  0.47890E-02
  0.13977E-01
  0.14885E-01
  0.39314E-02
  0.15364E-01
  0.18158E-02
  0.65528E-02
  0.10987E-01
  0.10121E-01
  0.38063E-02
  0.51881E-02
  0.31874E-02
  0.35309E-02
  0.39493E-02
  0.45584E-02
  0.37450E-02
 -0.28132E-01
  0.54355E-02
  0.68275E-02
  0.15235E-01
 -0.19175E-01
  0.61066E-02
  0.58365E-02
  0.57327E-02
  0.38304E-02
  0.14339E-01
  0.81763E-02
  0.82568E-02
  0.83588E-02
  0.82413E-02
  0.12695E-01
 -0.37385E-02
  0.11859E-01
  0.51026E-02
 -0.39323E-01
  0.14772E-01
  0.13341E-01
  0.15240E-01
  0.36065E-02
  0.38416E-02
  0.29726E-02
  0.37726E-02
  0.42011E-02
  0.40960E-02
  0.45657E-02
  0.41697E-02
  0.46710E-02
  0.51216E-02
  0.13835E-01
  0.18941E-01
  0.20530E-01
  0.17571E-01
  0.51681E-02
  0.78216E-02
  0.99750E-02
  0.10947E-01
  0.11940E-01
 -0.61392E-02
 -0.39503E-02
 -0.53969E-01
 -0.12148E-01
 -0.36967E-02
 -0.32429E-01
  0.13624E-01
  0.43634E-02
  0.37928E-02
  0.62220E-02
 -0.44204E-02
  0.64965E-02
  0.22189E-01
 -0.24396E-01
  0.14452E-01
 -0.24464E-02
  0.21492E-01
  0.21777E-01
  0.19589E-01
  0.20280E-01
  0.22086E-01
  0.20270E-01
  0.18834E-01
 -0.45521E-02
  0.91865E-02
  0.83081E-02
  0.58341E-02
  0.13831E-01
  0.48117E-02
  0.68942E-02
  0.89242E-02
  0.99662E-03
 -0.20942E-02
  0.95801E-02
 -0.10389E-01
 -0.38242E-02
 -0.36249E-01
 -0.31688E-01
 -0.26145E-01
 -0.39341E-01
 -0.22262E-01
  0.47787E-02
  0.14019E-01
  0.12782E-01
  0.15836E-01
  0.16949E-01
  0.18525E-01
  0.17429E-01
 -0.21315E-01
  0.22578E-02
  0.11070E-01
  0.66565E-02
  0.36611E-02
  0.14207E-01
  0.22142E-01
  0.73545E-02
  0.35706E-02
  0.14623E-01
  0.13876E-01
  0.14820E-01
  0.14548E-01
 -0.29113E-01
  0.56852E-02
  0.13999E-02
 -0.34735E-01
 -0.33228E-01
  0.15222E-01
  0.15085E-01
  0.14982E-01
  0.13505E-01
 -0.60490E-02
  0.91379E-03
  0.23944E-01
  0.24918E-01
 -0.79433E-05
  0.16853E-01
  0.13311E-01
 -0.17979E-01
  0.24255E-02
  0.13789E-02
  0.25227E-02
  0.19672E-02
  0.21633E-02
  0.19039E-02
  0.67380E-02
  0.69386E-02
  0.53063E-02
  0.65348E-02
  0.80890E-02
  0.14770E-01
  0.16340E-01
  0.17917E-01
  0.17814E-01
 -0.58948E-02
 -0.97028E-02
 -0.12508E-01
  0.36541E-02
  0.45130E-02
  0.38989E-02
  0.53967E-02
  0.15221E-01
  0.35170E-02
 -0.22526E-01
 -0.98735E-02
 -0.12730E-01
 -0.21571E-01
 -0.21330E-01
  0.13563E-01
  0.13923E-01
  0.13867E-01
  0.13909E-01
  0.13704E-01
  0.13849E-01
  0.16589E-01
 -0.44625E-03
  0.15268E-02
  0.14825E-01
  0.14916E-01
  0.83515E-02
  0.19626E-02
  0.34903E-02
  0.15151E-01
  0.98352E-02
  0.11149E-01
 -0.78975E-02
  0.27620E-02
 -0.11325E-01
 -0.14602E-01
  0.15283E-01
 -0.20231E-02
  0.34680E-02
  0.40197E-02
  0.48208E-02
  0.49883E-02
 -0.45099E-02
  0.40782E-02
  0.14160E-01
  0.14038E-01
  0.10163E-02
  0.85736E-02
  0.17385E-01
 -0.46742E-02
  0.18901E-01
  0.20323E-01
 -0.16339E-01
  0.13372E-01
  0.14043E-01
  0.14205E-01
  0.14417E-01
  0.60640E-02
  0.15177E-01
  0.38052E-02
  0.13525E-01
  0.13653E-01
  0.13442E-01
 -0.14442E-01
 -0.31094E-01
  0.76995E-03
  0.84799E-04
  0.17161E-02
  0.57367E-02
  0.64033E-02
  0.13288E-02
  0.91073E-02
  0.10012E-01
  0.17732E-01
  0.58595E-02
  0.55357E-02
  0.11691E-01
  0.11518E-01
  0.12224E-01
  0.12355E-01
  0.12848E-01
  0.55983E-02
  0.72427E-02
  0.55249E-02
  0.59085E-02
  0.63819E-02
  0.36314E-02
  0.45289E-02
 -0.33005E-02
 -0.58225E-02
  0.60134E-02
  0.52869E-02
  0.66451E-02
  0.73812E-02
  0.80303E-02
  0.88801E-03
  0.11082E-01
  0.90360E-02
  0.13025E-01
  0.13121E-01
  0.19515E-01
 -0.91719E-02
  0.66464E-02
  0.43446E-02
  0.15226E-01
 -0.58132E-02
  0.60238E-02
  0.68617E-02
  0.77920E-02
  0.81354E-02
  0.79987E-02
  0.78395E-02
  0.76561E-02
  0.72674E-02
 -0.58498E-01
 -0.36664E-02
  0.43664E-02
  0.15021E-01
  0.14743E-01
  0.15368E-01
  0.83688E-02
  0.68646E-02
  0.49359E-02
  0.15234E-01
  0.13965E-01
  0.76057E-02
  0.78206E-02
  0.68327E-02
 -0.63934E-02
 -0.76695E-02
 -0.40278E-02
 -0.69939E-03
  0.18578E-01
 -0.91392E-02
 -0.57140E-02
 -0.36576E-02
 -0.50978E-02
 -0.43891E-02
  0.35684E-02
  0.58625E-02
 -0.11333E-02
 -0.23877E-02
 -0.27014E-02
  0.76770E-02
  0.70973E-02
  0.73572E-02
  0.62142E-02
  0.14185E-01
 -0.24812E-02
  0.64108E-02
  0.17441E-01
  0.11812E-02
  0.55591E-02
  0.13680E-02
  0.26056E-04
 -0.28198E-03
 -0.36704E-03
 -0.89480E-03
  0.50160E-02
  0.63910E-02
  0.55799E-02
  0.20580E-02
  0.30138E-02
  0.41103E-02
  0.44657E-02
  0.67210E-02
  0.30423E-02
  0.27868E-02
 -0.19162E-01
  0.43134E-02
  0.42705E-02
  0.10996E-01
  0.59337E-02
  0.16295E-02
  0.71300E-03
  0.42785E-02
 -0.64743E-02
 -0.68137E-02
  0.14089E-02
  0.41059E-02
 -0.13374E-02
 -0.54330E-02
  0.13081E-02
  0.76140E-02
 -0.53792E-02
 -0.65515E-02
  0.10495E-02
  0.35794E-02
 -0.15378E-02
  0.10056E-01
 -0.71016E-02
  0.39591E-02
 -0.82754E-02
 -0.93282E-02
 -0.50084E-02
  0.54249E-02
  0.36872E-02
 -0.14796E-01
 -0.55191E-02
  0.57696E-02
 -0.36274E-02
 -0.36253E-02
 -0.24276E-01
  0.77326E-02
  0.64611E-02
  0.11729E-01
  0.35166E-02
  0.46856E-02
 -0.80982E-02
  0.15584E-02
  0.57584E-02
  0.59087E-02
 -0.42046E-02
  0.36103E-02
  0.67813E-02
  0.60152E-02
 -0.13467E-03
 -0.28086E-01
 -0.20894E-01
  0.54783E-02
 -0.84446E-02
  0.56572E-02
  0.61624E-02
 -0.11258E-01
  0.28243E-02
 -0.51082E-02
 -0.12601E-01
  0.65579E-02
 -0.72743E-03
  0.14635E-01
 -0.36866E-02
 -0.27873E-01
  0.11738E-01
 -0.16312E-02
  0.48544E-02
  0.62620E-02
  0.83216E-02
 -0.25371E-02
  0.47831E-02
  0.15149E-01
 -0.41025E-02
  0.18849E-01
  0.79329E-02
  0.23758E-01
  0.18972E-01
  0.79041E-02
  0.17436E-01
 -0.34954E-01
 -0.32144E-01
  0.99940E-02
  0.12733E-01
  0.82943E-02
  0.17035E-01
 -0.10059E-02
  0.55326E-02
 -0.26091E-01
 -0.34025E-01
 -0.91944E-02
  0.12996E-01
 -0.14306E-01
 -0.37550E-01
 -0.74636E-02
  0.26718E-03
  0.49104E-02
 -0.38868E-01
 -0.40472E-01