# vtk DataFile Version 2.0
Unstructured Grid UFVM-ECOMOD
ASCII
DATASET UNSTRUCTURED_GRID
 POINTS         1810  float
  0.00000E+00  0.00000E+00  0.00000E+00
  0.40000E+01  0.00000E+00  0.00000E+00
  0.40000E+01  0.20000E+01  0.00000E+00
  0.00000E+00  0.20000E+01  0.00000E+00
  0.12217E+01  0.98333E+00  0.00000E+00
  0.81167E+00  0.11389E+01  0.00000E+00
  0.12217E+01  0.12944E+01  0.00000E+00
  0.10000E+00  0.00000E+00  0.00000E+00
  0.20000E+00  0.00000E+00  0.00000E+00
  0.30000E+00  0.00000E+00  0.00000E+00
  0.40000E+00  0.00000E+00  0.00000E+00
  0.50000E+00  0.00000E+00  0.00000E+00
  0.60000E+00  0.00000E+00  0.00000E+00
  0.70000E+00  0.00000E+00  0.00000E+00
  0.80000E+00  0.00000E+00  0.00000E+00
  0.90000E+00  0.00000E+00  0.00000E+00
  0.10000E+01  0.00000E+00  0.00000E+00
  0.11000E+01  0.00000E+00  0.00000E+00
  0.12000E+01  0.00000E+00  0.00000E+00
  0.13000E+01  0.00000E+00  0.00000E+00
  0.14000E+01  0.00000E+00  0.00000E+00
  0.15000E+01  0.00000E+00  0.00000E+00
  0.16000E+01  0.00000E+00  0.00000E+00
  0.17000E+01  0.00000E+00  0.00000E+00
  0.18000E+01  0.00000E+00  0.00000E+00
  0.19000E+01  0.00000E+00  0.00000E+00
  0.20000E+01  0.00000E+00  0.00000E+00
  0.21000E+01  0.00000E+00  0.00000E+00
  0.22000E+01  0.00000E+00  0.00000E+00
  0.23000E+01  0.00000E+00  0.00000E+00
  0.24000E+01  0.00000E+00  0.00000E+00
  0.25000E+01  0.00000E+00  0.00000E+00
  0.26000E+01  0.00000E+00  0.00000E+00
  0.27000E+01  0.00000E+00  0.00000E+00
  0.28000E+01  0.00000E+00  0.00000E+00
  0.29000E+01  0.00000E+00  0.00000E+00
  0.30000E+01  0.00000E+00  0.00000E+00
  0.31000E+01  0.00000E+00  0.00000E+00
  0.32000E+01  0.00000E+00  0.00000E+00
  0.33000E+01  0.00000E+00  0.00000E+00
  0.34000E+01  0.00000E+00  0.00000E+00
  0.35000E+01  0.00000E+00  0.00000E+00
  0.36000E+01  0.00000E+00  0.00000E+00
  0.37000E+01  0.00000E+00  0.00000E+00
  0.38000E+01  0.00000E+00  0.00000E+00
  0.39000E+01  0.00000E+00  0.00000E+00
  0.40000E+01  0.10000E+00  0.00000E+00
  0.40000E+01  0.20000E+00  0.00000E+00
  0.40000E+01  0.30000E+00  0.00000E+00
  0.40000E+01  0.40000E+00  0.00000E+00
  0.40000E+01  0.50000E+00  0.00000E+00
  0.40000E+01  0.60000E+00  0.00000E+00
  0.40000E+01  0.70000E+00  0.00000E+00
  0.40000E+01  0.80000E+00  0.00000E+00
  0.40000E+01  0.90000E+00  0.00000E+00
  0.40000E+01  0.10000E+01  0.00000E+00
  0.40000E+01  0.11000E+01  0.00000E+00
  0.40000E+01  0.12000E+01  0.00000E+00
  0.40000E+01  0.13000E+01  0.00000E+00
  0.40000E+01  0.14000E+01  0.00000E+00
  0.40000E+01  0.15000E+01  0.00000E+00
  0.40000E+01  0.16000E+01  0.00000E+00
  0.40000E+01  0.17000E+01  0.00000E+00
  0.40000E+01  0.18000E+01  0.00000E+00
  0.40000E+01  0.19000E+01  0.00000E+00
  0.39000E+01  0.20000E+01  0.00000E+00
  0.38000E+01  0.20000E+01  0.00000E+00
  0.37000E+01  0.20000E+01  0.00000E+00
  0.36000E+01  0.20000E+01  0.00000E+00
  0.35000E+01  0.20000E+01  0.00000E+00
  0.34000E+01  0.20000E+01  0.00000E+00
  0.33000E+01  0.20000E+01  0.00000E+00
  0.32000E+01  0.20000E+01  0.00000E+00
  0.31000E+01  0.20000E+01  0.00000E+00
  0.30000E+01  0.20000E+01  0.00000E+00
  0.29000E+01  0.20000E+01  0.00000E+00
  0.28000E+01  0.20000E+01  0.00000E+00
  0.27000E+01  0.20000E+01  0.00000E+00
  0.26000E+01  0.20000E+01  0.00000E+00
  0.25000E+01  0.20000E+01  0.00000E+00
  0.24000E+01  0.20000E+01  0.00000E+00
  0.23000E+01  0.20000E+01  0.00000E+00
  0.22000E+01  0.20000E+01  0.00000E+00
  0.21000E+01  0.20000E+01  0.00000E+00
  0.20000E+01  0.20000E+01  0.00000E+00
  0.19000E+01  0.20000E+01  0.00000E+00
  0.18000E+01  0.20000E+01  0.00000E+00
  0.17000E+01  0.20000E+01  0.00000E+00
  0.16000E+01  0.20000E+01  0.00000E+00
  0.15000E+01  0.20000E+01  0.00000E+00
  0.14000E+01  0.20000E+01  0.00000E+00
  0.13000E+01  0.20000E+01  0.00000E+00
  0.12000E+01  0.20000E+01  0.00000E+00
  0.11000E+01  0.20000E+01  0.00000E+00
  0.10000E+01  0.20000E+01  0.00000E+00
  0.90000E+00  0.20000E+01  0.00000E+00
  0.80000E+00  0.20000E+01  0.00000E+00
  0.70000E+00  0.20000E+01  0.00000E+00
  0.60000E+00  0.20000E+01  0.00000E+00
  0.50000E+00  0.20000E+01  0.00000E+00
  0.40000E+00  0.20000E+01  0.00000E+00
  0.30000E+00  0.20000E+01  0.00000E+00
  0.20000E+00  0.20000E+01  0.00000E+00
  0.10000E+00  0.20000E+01  0.00000E+00
  0.00000E+00  0.19000E+01  0.00000E+00
  0.00000E+00  0.18000E+01  0.00000E+00
  0.00000E+00  0.17000E+01  0.00000E+00
  0.00000E+00  0.16000E+01  0.00000E+00
  0.00000E+00  0.15000E+01  0.00000E+00
  0.00000E+00  0.14000E+01  0.00000E+00
  0.00000E+00  0.13000E+01  0.00000E+00
  0.00000E+00  0.12000E+01  0.00000E+00
  0.00000E+00  0.11000E+01  0.00000E+00
  0.00000E+00  0.10000E+01  0.00000E+00
  0.00000E+00  0.90000E+00  0.00000E+00
  0.00000E+00  0.80000E+00  0.00000E+00
  0.00000E+00  0.70000E+00  0.00000E+00
  0.00000E+00  0.60000E+00  0.00000E+00
  0.00000E+00  0.50000E+00  0.00000E+00
  0.00000E+00  0.40000E+00  0.00000E+00
  0.00000E+00  0.30000E+00  0.00000E+00
  0.00000E+00  0.20000E+00  0.00000E+00
  0.00000E+00  0.10000E+00  0.00000E+00
  0.11989E+01  0.99198E+00  0.00000E+00
  0.11761E+01  0.10006E+01  0.00000E+00
  0.11533E+01  0.10093E+01  0.00000E+00
  0.11306E+01  0.10179E+01  0.00000E+00
  0.11078E+01  0.10265E+01  0.00000E+00
  0.10850E+01  0.10352E+01  0.00000E+00
  0.10622E+01  0.10438E+01  0.00000E+00
  0.10394E+01  0.10525E+01  0.00000E+00
  0.10167E+01  0.10611E+01  0.00000E+00
  0.99389E+00  0.10697E+01  0.00000E+00
  0.97111E+00  0.10784E+01  0.00000E+00
  0.94833E+00  0.10870E+01  0.00000E+00
  0.92556E+00  0.10957E+01  0.00000E+00
  0.90278E+00  0.11043E+01  0.00000E+00
  0.88000E+00  0.11130E+01  0.00000E+00
  0.85722E+00  0.11216E+01  0.00000E+00
  0.83444E+00  0.11302E+01  0.00000E+00
  0.83444E+00  0.11475E+01  0.00000E+00
  0.85722E+00  0.11562E+01  0.00000E+00
  0.88000E+00  0.11648E+01  0.00000E+00
  0.90278E+00  0.11735E+01  0.00000E+00
  0.92556E+00  0.11821E+01  0.00000E+00
  0.94833E+00  0.11907E+01  0.00000E+00
  0.97111E+00  0.11994E+01  0.00000E+00
  0.99389E+00  0.12080E+01  0.00000E+00
  0.10167E+01  0.12167E+01  0.00000E+00
  0.10394E+01  0.12253E+01  0.00000E+00
  0.10622E+01  0.12340E+01  0.00000E+00
  0.10850E+01  0.12426E+01  0.00000E+00
  0.11078E+01  0.12512E+01  0.00000E+00
  0.11306E+01  0.12599E+01  0.00000E+00
  0.11533E+01  0.12685E+01  0.00000E+00
  0.11761E+01  0.12772E+01  0.00000E+00
  0.11989E+01  0.12858E+01  0.00000E+00
  0.12217E+01  0.12705E+01  0.00000E+00
  0.12217E+01  0.12466E+01  0.00000E+00
  0.12217E+01  0.12227E+01  0.00000E+00
  0.12217E+01  0.11987E+01  0.00000E+00
  0.12217E+01  0.11748E+01  0.00000E+00
  0.12217E+01  0.11508E+01  0.00000E+00
  0.12217E+01  0.11269E+01  0.00000E+00
  0.12217E+01  0.11030E+01  0.00000E+00
  0.12217E+01  0.10791E+01  0.00000E+00
  0.12217E+01  0.10551E+01  0.00000E+00
  0.12217E+01  0.10312E+01  0.00000E+00
  0.12217E+01  0.10073E+01  0.00000E+00
  0.12429E+01  0.10188E+01  0.00000E+00
  0.12399E+01  0.11882E+01  0.00000E+00
  0.21377E+01  0.78680E-01  0.00000E+00
  0.21538E+01  0.19174E+01  0.00000E+00
  0.83774E+00  0.11061E+01  0.00000E+00
  0.97541E+00  0.10554E+01  0.00000E+00
  0.11166E+01  0.10045E+01  0.00000E+00
  0.29463E+01  0.19156E+01  0.00000E+00
  0.26515E+01  0.81480E-01  0.00000E+00
  0.25477E+01  0.19110E+01  0.00000E+00
  0.30502E+01  0.68680E-01  0.00000E+00
  0.83912E+00  0.11750E+01  0.00000E+00
  0.95224E+00  0.12148E+01  0.00000E+00
  0.10661E+01  0.12580E+01  0.00000E+00
  0.11804E+01  0.13002E+01  0.00000E+00
  0.39119E+01  0.10505E+01  0.00000E+00
  0.17555E+01  0.84130E-01  0.00000E+00
  0.64649E+00  0.99150E-01  0.00000E+00
  0.17446E+01  0.19250E+01  0.00000E+00
  0.86600E-01  0.65000E+00  0.00000E+00
  0.14551E+01  0.78430E-01  0.00000E+00
  0.96058E+00  0.81690E-01  0.00000E+00
  0.33501E+01  0.19134E+01  0.00000E+00
  0.39162E+01  0.63967E+00  0.00000E+00
  0.82470E-01  0.14561E+01  0.00000E+00
  0.55009E+00  0.19215E+01  0.00000E+00
  0.85020E-01  0.95314E+00  0.00000E+00
  0.39167E+01  0.13623E+01  0.00000E+00
  0.33616E+01  0.95540E-01  0.00000E+00
  0.90682E+00  0.10774E+01  0.00000E+00
  0.10433E+01  0.10284E+01  0.00000E+00
  0.11799E+01  0.97718E+00  0.00000E+00
  0.12429E+01  0.10931E+01  0.00000E+00
  0.12436E+01  0.12583E+01  0.00000E+00
  0.85035E+00  0.19198E+01  0.00000E+00
  0.14457E+01  0.19288E+01  0.00000E+00
  0.11516E+01  0.19130E+01  0.00000E+00
  0.36450E+01  0.85340E-01  0.00000E+00
  0.84610E-01  0.34945E+00  0.00000E+00
  0.36500E+01  0.19134E+01  0.00000E+00
  0.35776E+00  0.89100E-01  0.00000E+00
  0.39086E+01  0.16476E+01  0.00000E+00
  0.39134E+01  0.35000E+00  0.00000E+00
  0.83900E-01  0.11460E+01  0.00000E+00
  0.35715E+00  0.19076E+01  0.00000E+00
  0.83410E-01  0.16549E+01  0.00000E+00
  0.12495E+01  0.81910E-01  0.00000E+00
  0.19505E+01  0.76550E-01  0.00000E+00
  0.23503E+01  0.82860E-01  0.00000E+00
  0.19504E+01  0.19252E+01  0.00000E+00
  0.23461E+01  0.19181E+01  0.00000E+00
  0.28427E+01  0.83720E-01  0.00000E+00
  0.31542E+01  0.19172E+01  0.00000E+00
  0.27508E+01  0.19148E+01  0.00000E+00
  0.39150E+01  0.84994E+00  0.00000E+00
  0.88020E+00  0.11939E+01  0.00000E+00
  0.99745E+00  0.12340E+01  0.00000E+00
  0.12424E+01  0.11389E+01  0.00000E+00
  0.11119E+01  0.12747E+01  0.00000E+00
  0.78910E-01  0.18478E+01  0.00000E+00
  0.38489E+01  0.73890E-01  0.00000E+00
  0.86600E-01  0.15000E+00  0.00000E+00
  0.38461E+01  0.19156E+01  0.00000E+00
  0.83750E-01  0.10487E+01  0.00000E+00
  0.16314E+00  0.10008E+01  0.00000E+00
  0.16591E+00  0.91287E+00  0.00000E+00
  0.23730E+00  0.95594E+00  0.00000E+00
  0.24013E+00  0.87512E+00  0.00000E+00
  0.30661E+00  0.91623E+00  0.00000E+00
  0.30296E+00  0.99591E+00  0.00000E+00
  0.30938E+00  0.83944E+00  0.00000E+00
  0.37444E+00  0.87856E+00  0.00000E+00
  0.37563E+00  0.80503E+00  0.00000E+00
  0.43612E+00  0.84332E+00  0.00000E+00
  0.43924E+00  0.77347E+00  0.00000E+00
  0.49710E+00  0.80859E+00  0.00000E+00
  0.50063E+00  0.74182E+00  0.00000E+00
  0.55658E+00  0.77549E+00  0.00000E+00
[...]
 POINT_DATA         1810
  
 SCALARS WL      float 1
 LOOKUP_TABLE default
  0.12501E-01
  0.19906E-02
 -0.93209E-03
  0.16113E-01
 -0.31186E-01
  0.26759E-01
 -0.15613E-01
  0.12609E-01
  0.12848E-01
  0.13119E-01
  0.13366E-01
  0.13489E-01
  0.13462E-01
  0.13148E-01
  0.12428E-01
  0.11436E-01
  0.10229E-01
  0.89456E-02
  0.76336E-02
  0.65055E-02
  0.56092E-02
  0.50728E-02
  0.48707E-02
  0.49939E-02
  0.53941E-02
  0.60437E-02
  0.68835E-02
  0.77542E-02
  0.85684E-02
  0.90879E-02
  0.92631E-02
  0.89792E-02
  0.83360E-02
  0.74755E-02
  0.65475E-02
  0.56006E-02
  0.48991E-02
  0.43999E-02
  0.43133E-02
  0.45828E-02
  0.50283E-02
  0.55953E-02
  0.59183E-02
  0.58120E-02
  0.49701E-02
  0.33819E-02
  0.00000E+00
  0.00000E+00
  0.00000E+00
  0.00000E+00
  0.00000E+00
  0.00000E+00
  0.00000E+00
  0.00000E+00
  0.00000E+00
  0.00000E+00
  0.00000E+00
  0.00000E+00
  0.00000E+00
  0.00000E+00
  0.00000E+00
  0.00000E+00
  0.00000E+00
  0.00000E+00
  0.00000E+00
 -0.11521E-02
 -0.10916E-02
 -0.34737E-03
  0.99435E-03
  0.27616E-02
  0.44044E-02
  0.59383E-02
  0.72587E-02
  0.80367E-02
  0.81803E-02
  0.76154E-02
  0.66410E-02
  0.56307E-02
  0.48960E-02
  0.44925E-02
  0.45057E-02
  0.45092E-02
  0.45490E-02
  0.46231E-02
  0.48103E-02
  0.49346E-02
  0.49448E-02
  0.48453E-02
  0.47134E-02
  0.46270E-02
  0.48154E-02
  0.53479E-02
  0.61194E-02
  0.72227E-02
  0.84445E-02
  0.97273E-02
  0.10941E-01
  0.11991E-01
  0.12871E-01
  0.13615E-01
  0.14288E-01
  0.14878E-01
  0.15424E-01
  0.15885E-01
  0.16156E-01
  0.16198E-01
  0.16251E-01
  0.16305E-01
  0.16343E-01
  0.16341E-01
  0.16267E-01
  0.16122E-01
  0.15888E-01
  0.15576E-01
  0.15200E-01
  0.14779E-01
  0.14325E-01
  0.13888E-01
  0.13489E-01
  0.13153E-01
  0.12870E-01
  0.12658E-01
  0.12528E-01
 -0.15003E-01
 -0.94054E-02
 -0.51363E-02
 -0.25325E-02
  0.12368E-02
  0.39976E-02
  0.48491E-02
  0.69269E-02
  0.87311E-02
  0.10396E-01
  0.11632E-01
  0.13424E-01
  0.14773E-01
  0.16983E-01
  0.18507E-01
  0.20477E-01
  0.23688E-01
  0.25871E-01
  0.22714E-01
  0.21490E-01
  0.19335E-01
  0.18482E-01
  0.16502E-01
  0.15721E-01
  0.14231E-01
  0.13132E-01
  0.11990E-01
  0.10626E-01
  0.92177E-02
  0.77993E-02
  0.59990E-02
  0.34723E-02
  0.59488E-03
 -0.36187E-02
 -0.20057E-01
 -0.19963E-01
 -0.22097E-01
 -0.25645E-01
 -0.31175E-01
 -0.37651E-01
 -0.43852E-01
 -0.48195E-01
 -0.50048E-01
 -0.48995E-01
 -0.45646E-01
 -0.41911E-01
 -0.43944E-01
 -0.28423E-01
  0.80666E-02
  0.46759E-02
  0.21414E-01
  0.11064E-01
 -0.10972E-02
  0.78959E-02
  0.78926E-02
  0.45966E-02
  0.46106E-02
  0.23175E-01
  0.16142E-01
  0.99334E-02
 -0.88019E-03
 -0.16403E-03
  0.51783E-02
  0.13312E-01
  0.47871E-02
  0.14134E-01
  0.52293E-02
  0.10709E-01
  0.51965E-02
  0.40054E-02
  0.16235E-01
  0.13318E-01
  0.15387E-01
 -0.44781E-02
  0.48211E-02
  0.15659E-01
  0.58764E-02
 -0.11304E-01
 -0.50215E-01
 -0.19466E-01
  0.10446E-01
  0.45672E-02
  0.65782E-02
  0.59995E-02
  0.13063E-01
  0.18755E-03
  0.13276E-01
 -0.26391E-02
  0.34186E-02
  0.15962E-01
  0.14589E-01
  0.16122E-01
  0.69796E-02
  0.64568E-02
  0.92169E-02
  0.48605E-02
  0.45851E-02
  0.61407E-02
  0.76943E-02
  0.61017E-02
  0.30154E-02
  0.20166E-01
  0.13590E-01
 -0.41838E-01
  0.71259E-02
  0.16021E-01
  0.42977E-02
  0.12677E-01
 -0.12702E-02
  0.15708E-01
  0.15561E-01
  0.15260E-01
  0.15476E-01
  0.15185E-01
  0.15412E-01
  0.15687E-01
  0.15109E-01
  0.15333E-01
  0.15001E-01
  0.15189E-01
  0.14838E-01
  0.14949E-01
  0.14575E-01
  0.14598E-01
  0.14191E-01
  0.14095E-01
  0.13703E-01
  0.13445E-01
  0.15389E-01
  0.13127E-01
  0.12682E-01
  0.13109E-01
  0.12143E-01
  0.11806E-01
  0.11043E-01
  0.10847E-01
  0.99000E-02
  0.98493E-02
  0.87258E-02
  0.87402E-02
  0.74005E-02
  0.75820E-02
  0.61005E-02
  0.65324E-02
  0.49963E-02
  0.13851E-01
  0.12685E-01
  0.56260E-02
  0.40227E-02
  0.30322E-02
  0.21710E-02
  0.33512E-02
  0.17549E-02
  0.20970E-03
  0.15477E-03
 -0.17679E-02
 -0.12947E-02
  0.55074E-03
 -0.37320E-03
 -0.25132E-02
 -0.94840E-03
 -0.33433E-02
 -0.92674E-03
 -0.34364E-02
 -0.58180E-04
 -0.25639E-02
  0.14791E-02
 -0.75276E-03
  0.36155E-02
  0.15783E-02
  0.55955E-02
  0.31926E-02
  0.65182E-02
  0.22159E-02
  0.46628E-02
 -0.28366E-02
 -0.40238E-03
  0.61060E-02
  0.11326E-02
 -0.56717E-02
 -0.43696E-02
  0.35710E-03
 -0.63239E-02
 -0.90310E-02
 -0.26161E-02
 -0.10505E-01
  0.44237E-02
 -0.64654E-02
 -0.13100E-01
 -0.16214E-01
 -0.15817E-01
 -0.17426E-01
 -0.14262E-01
 -0.96202E-02
 -0.78265E-02
 -0.30916E-02
 -0.28262E-02
 -0.61942E-02
 -0.32261E-02
  0.39402E-04
 -0.14650E-02
  0.18440E-02
 -0.88649E-04
 -0.38895E-02
 -0.25058E-02
  0.12159E-02
 -0.83800E-03
  0.68217E-03
  0.23921E-02
  0.13650E-04
 -0.27772E-02
 -0.25914E-02
 -0.59986E-03
 -0.40854E-02
 -0.45903E-02
 -0.25301E-02
 -0.46110E-02
 -0.69426E-02
  0.91603E-03
 -0.51206E-02
 -0.77388E-02
 -0.41565E-02
 -0.21622E-02
 -0.13296E-02
  0.38819E-02
  0.32855E-02
 -0.60335E-02
 -0.91467E-02
 -0.44468E-02
  0.73768E-02
 -0.95854E-03
  0.60497E-02
  0.59555E-02
  0.10797E-01
  0.70139E-02
 -0.27665E-02
  0.10609E-02
 -0.68371E-02
  0.68647E-02
  0.68966E-02
 -0.55649E-03
  0.22253E-02
  0.38740E-02
  0.63457E-02
  0.72002E-02
  0.71119E-02
  0.73014E-02
  0.73125E-02
  0.69732E-02
  0.67896E-02
  0.66141E-02
 -0.24234E-04
 -0.22568E-02
  0.22461E-02
  0.14598E-01
  0.14720E-01
  0.78579E-02
  0.76273E-02
 -0.16676E-02
  0.29837E-02
  0.83693E-02
  0.80856E-02
  0.74495E-02
  0.86134E-02
  0.82974E-02
 -0.57653E-02
 -0.67946E-02
  0.15253E-02
 -0.30773E-03
  0.33104E-02
  0.18949E-02
  0.44765E-02
  0.34932E-02
  0.96836E-03
  0.28714E-02
  0.11751E-02
  0.30370E-02
  0.25726E-02
  0.50820E-02
  0.39485E-02
  0.44480E-02
  0.27499E-02
  0.59770E-02
  0.51581E-02
  0.60563E-02
  0.41948E-02
 -0.77890E-02
 -0.64116E-02
 -0.65088E-02
 -0.46854E-02
 -0.30742E-02
 -0.14962E-02
  0.74630E-03
  0.18532E-02
 -0.11184E-02
 -0.13973E-02
  0.24821E-02
  0.53256E-03
  0.38748E-02
  0.26261E-02
  0.45139E-02
  0.27907E-02
  0.41096E-02
  0.21499E-02
  0.33963E-02
  0.12708E-02
 -0.90781E-03
 -0.21650E-02
  0.35996E-03
 -0.30727E-02
 -0.36317E-03
 -0.35089E-02
 -0.80652E-02
 -0.75352E-02
 -0.34428E-02
 -0.63465E-02
 -0.11101E-01
 -0.82914E-02
 -0.12207E-01
 -0.47262E-02
 -0.55408E-02
 -0.33359E-02
 -0.39018E-02
 -0.20984E-02
 -0.26981E-02
 -0.67301E-03
 -0.92477E-03
  0.93593E-03
  0.13873E-02
  0.28404E-02
  0.36076E-02
  0.47166E-02
  0.57226E-02
  0.63850E-02
  0.75096E-02
 -0.53386E-02
 -0.11758E-02
  0.23826E-02
  0.78085E-02
  0.89736E-02
  0.89329E-02
  0.10225E-01
  0.10322E-01
  0.11480E-01
  0.11213E-01
  0.12431E-01
  0.12003E-01
  0.13099E-01
  0.13816E-01
  0.14172E-01
  0.13545E-01
  0.14451E-01
  0.15176E-01
  0.15253E-01
  0.16054E-01
  0.15906E-01
  0.15247E-01
  0.15746E-01
  0.16370E-01
  0.16095E-01
  0.16632E-01
  0.15236E-01
  0.16288E-01
  0.16697E-01
  0.16345E-01
  0.16071E-01
  0.17086E-01
  0.16095E-01
  0.89349E-02
  0.10415E-01
 -0.61765E-02
  0.16615E-01
  0.17184E-01
  0.16319E-01
  0.16830E-01
  0.17370E-01
 -0.16501E-01
 -0.15160E-01
 -0.20966E-01
 -0.19161E-01
 -0.13296E-01
 -0.21469E-01
 -0.16284E-01
 -0.29372E-01
  0.21546E-02
 -0.12379E-02
 -0.31015E-01
 -0.41586E-01
 -0.40811E-01
 -0.53532E-01
 -0.48445E-01
 -0.59320E-01
 -0.24418E-01
  0.44231E-02
 -0.12593E-01
  0.90037E-02
  0.54777E-02
  0.61715E-02
  0.58294E-02
 -0.39185E-02
  0.13876E-01
  0.13027E-01
  0.13434E-01
  0.62517E-02
  0.75414E-02
  0.68327E-02
 -0.10837E-02
  0.10931E-02
  0.38650E-02
 -0.31340E-02
  0.80572E-02
  0.59952E-02
  0.19274E-02
  0.13742E-02
  0.38722E-02
  0.64937E-02
 -0.47764E-01
 -0.56869E-01
 -0.64800E-01
 -0.60473E-01
  0.12206E-02
  0.81222E-02
  0.89087E-02
  0.10655E-01
  0.16662E-02
  0.46101E-02
  0.16898E-01
  0.17408E-01
  0.18071E-01
  0.18069E-01
  0.17251E-01
  0.17868E-01
  0.73397E-02
  0.30492E-02
 -0.52256E-01
 -0.36930E-01
  0.55473E-02
  0.79527E-02
  0.62470E-02
  0.53566E-02
  0.51559E-02
  0.47043E-02
  0.47211E-02
  0.43767E-02
  0.19923E-02
 -0.69601E-03
 -0.47817E-02
 -0.23560E-02
 -0.64617E-02
 -0.17186E-02
  0.17327E-02
  0.31363E-02
  0.62168E-02
  0.70022E-02
  0.68814E-02
  0.88396E-02
  0.74573E-02
  0.90438E-02
  0.76887E-02
  0.94360E-02
  0.58760E-02
  0.60147E-02
  0.40446E-02
  0.40550E-02
  0.18771E-02
  0.62641E-02
  0.16879E-01
  0.17101E-01
  0.18025E-01
  0.17087E-01
  0.27331E-02
  0.87377E-02
 -0.36897E-01
  0.17969E-02
 -0.75276E-03
 -0.29582E-03
 -0.32983E-02
 -0.27777E-02
 -0.50092E-02
  0.68317E-02
  0.11895E-01
  0.77136E-02
  0.18983E-01
 -0.19412E-02
  0.12298E-01
  0.13300E-01
  0.65801E-02
 -0.22706E-02
  0.16294E-01
  0.16027E-01
  0.16765E-01
  0.15476E-01
  0.16005E-01
  0.85940E-02
  0.14570E-01
  0.14849E-01
  0.12578E-01
  0.83925E-02
  0.92108E-02
  0.99515E-02
 -0.30617E-01
  0.90321E-02
 -0.41173E-02
  0.13105E-01
 -0.63856E-01
 -0.57790E-01
 -0.50325E-01
 -0.46903E-01
  0.29497E-02
  0.25953E-02
  0.16524E-01
  0.57368E-02
 -0.36585E-01
 -0.33535E-01
 -0.39936E-01
 -0.28527E-01
  0.68175E-02
  0.13693E-01
  0.14665E-01
  0.50422E-02
  0.52860E-02
  0.59212E-02
 -0.31830E-01
 -0.22549E-01
 -0.22737E-01
 -0.16525E-01
 -0.49282E-02
  0.15214E-01
  0.48108E-02
  0.47582E-02
  0.41297E-02
 -0.89361E-03
  0.18515E-02
  0.16602E-01
  0.23668E-02
  0.65242E-02
  0.42929E-02
  0.63035E-02
  0.77614E-02
 -0.44422E-01
 -0.31467E-01
 -0.24388E-01
 -0.27000E-01
 -0.15396E-01
  0.88537E-02
  0.56247E-02
  0.71479E-02
 -0.66724E-02
  0.37974E-02
 -0.53284E-04
  0.13357E-01
  0.13359E-01
  0.13313E-01
  0.11862E-01
  0.11680E-01
  0.35530E-02
  0.12745E-02
  0.61404E-02
  0.61823E-02
  0.66586E-02
  0.54833E-02
  0.77879E-02
 -0.23618E-02
  0.18738E-01
  0.19928E-01
 -0.22771E-01
  0.40473E-02
  0.39650E-02
  0.43832E-02
  0.79878E-02
 -0.11394E-01
 -0.75676E-02
  0.19286E-01
  0.20607E-01
  0.19492E-01
  0.20595E-01
  0.60533E-02
  0.13786E-01
  0.13582E-01
  0.14170E-01
  0.13981E-01
  0.14520E-01
 -0.15819E-01
  0.10309E-01
  0.11088E-01
  0.72848E-02
  0.72530E-02
 -0.37447E-01
  0.16787E-01
  0.16226E-01
  0.11302E-01
  0.11945E-01
  0.11793E-01
  0.12485E-01
  0.12386E-01
  0.12937E-01
  0.12914E-01
  0.13304E-01
  0.13302E-01
  0.13519E-01
  0.13598E-01
  0.13657E-01
  0.13808E-01
  0.13735E-01
  0.13580E-01
  0.13492E-01
  0.74007E-02
  0.15131E-01
  0.16074E-01
  0.15406E-01
  0.16688E-01
  0.17474E-01
  0.19195E-01
  0.46999E-02
  0.12619E-01
  0.71166E-02
  0.12954E-01
  0.13953E-01
  0.13780E-01
  0.14045E-01
  0.68385E-02
  0.68856E-02
  0.49635E-02
  0.10472E-01
  0.13126E-01
  0.67050E-02
  0.14814E-01
  0.89012E-02
  0.87423E-02
  0.82782E-02
 -0.82543E-02
  0.80594E-02
 -0.65306E-02
 -0.78830E-02
 -0.64402E-01
 -0.61658E-01
 -0.60185E-01
  0.20128E-01
 -0.23236E-01
 -0.14488E-01
  0.63111E-02
 -0.41682E-01
 -0.15330E-01
 -0.92648E-02
 -0.67771E-02
 -0.12250E-01
  0.12132E-01
  0.86253E-02
  0.90798E-02
  0.10100E-01
  0.42271E-02
  0.46833E-02
  0.35666E-02
 -0.12412E-01
 -0.56072E-02
 -0.86772E-02
 -0.59988E-02
 -0.90493E-02
 -0.76102E-02
  0.14374E-01
  0.14832E-01
  0.14980E-01
  0.15233E-01
  0.15386E-01
  0.15146E-01
  0.15583E-01
  0.15696E-01
  0.13819E-01
  0.67463E-02
  0.54284E-02
  0.49364E-02
  0.54247E-02
  0.11331E-01
  0.99369E-02
  0.94391E-02
  0.80908E-02
  0.36953E-02
  0.34866E-02
  0.24355E-02
  0.39807E-02
  0.13631E-01
  0.13306E-01
  0.61640E-02
  0.19819E-01
 -0.37526E-01
 -0.26736E-01
 -0.72796E-03
 -0.40340E-02
  0.21402E-02
 -0.11480E-01
  0.78632E-02
  0.73739E-02
 -0.15604E-01
  0.98982E-02
  0.49922E-02
  0.48021E-02
  0.34064E-02
  0.25336E-02
  0.11225E-02
  0.16041E-02
  0.29615E-02
  0.24261E-02
  0.36506E-02
  0.59531E-02
  0.73816E-02
  0.47620E-02
 -0.25794E-01
 -0.24827E-01
 -0.26749E-01
  0.68600E-02
  0.73322E-02
 -0.11062E-01
 -0.85819E-02
 -0.20128E-01
  0.18359E-01
  0.18408E-01
  0.18016E-01
  0.39636E-02
  0.45156E-02
 -0.58924E-02
 -0.69122E-02
 -0.45235E-02
  0.55513E-02
  0.49387E-02
  0.48552E-02
  0.21259E-02
 -0.37556E-02
 -0.92759E-03
 -0.37701E-02
 -0.14145E-02
 -0.25858E-02
  0.76748E-04
  0.20914E-02
  0.30627E-02
 -0.49476E-04
  0.48884E-02
  0.27758E-02
 -0.16474E-02
 -0.42261E-02
 -0.66866E-02
  0.12944E-01
  0.12363E-01
  0.35071E-02
  0.45015E-02
 -0.39852E-02
 -0.65455E-02
 -0.40532E-02
 -0.48484E-02
  0.44823E-02
  0.16429E-01
  0.16212E-01
  0.16056E-01
  0.36027E-02
 -0.22748E-01
 -0.22246E-01
  0.44192E-02
 -0.12288E-01
  0.45567E-02
  0.44019E-02
  0.43751E-02
  0.22485E-02
  0.20847E-02
 -0.51226E-04
  0.77154E-02
  0.15215E-01
 -0.26751E-02
 -0.32950E-02
  0.12002E-02
 -0.54140E-02
  0.82076E-02
  0.12129E-01
  0.11821E-01
  0.85007E-02
 -0.15083E-01
  0.22347E-01
  0.71063E-02
  0.12944E-01
  0.58992E-02
  0.63156E-02
  0.68739E-02
  0.68189E-02
  0.14023E-01
  0.46647E-02
  0.50254E-02
 -0.38025E-02
  0.57709E-02
  0.34517E-02
  0.13342E-01
  0.13495E-01
  0.13501E-01
 -0.14703E-01
 -0.34152E-02
 -0.59438E-02
  0.47200E-02
  0.45683E-02
  0.50357E-02
  0.16260E-01
  0.15629E-01
  0.33978E-03
  0.41586E-02
 -0.20388E-01
  0.82875E-02
  0.88436E-02
  0.76929E-02
  0.13566E-01
  0.10867E-01
  0.95529E-02
  0.12687E-01
  0.14535E-01
  0.16041E-01
 -0.62165E-02
  0.16752E-02
  0.77269E-02
  0.15867E-01
 -0.57383E-01
 -0.55765E-01
 -0.53905E-01
  0.73617E-02
  0.74294E-02
  0.15626E-01
 -0.71229E-02
 -0.67839E-02
  0.47439E-02
  0.43516E-02
  0.42942E-02
  0.41727E-02
 -0.11683E-01
 -0.10041E-01
  0.42380E-02
  0.32322E-02
  0.79372E-02
  0.75147E-02
  0.89894E-02
  0.43624E-02
  0.46263E-02
  0.14711E-01
  0.15852E-01
  0.15913E-01
  0.15843E-01
  0.15986E-01
  0.16050E-01
  0.16036E-01
  0.16053E-01
  0.16016E-01
  0.69939E-02
  0.48570E-02
 -0.75422E-02
  0.43585E-02
  0.42773E-02
  0.44042E-02
  0.98080E-02
  0.43233E-02
  0.40017E-02
  0.54521E-02
  0.14123E-01
  0.25897E-02
 -0.10217E-01
  0.10970E-01
  0.24724E-02
 -0.78978E-02
 -0.73534E-02
  0.63774E-02
  0.68508E-02
  0.16047E-01
  0.16086E-01
 -0.52929E-01
 -0.10044E-01
 -0.81750E-02
 -0.57823E-02
  0.51678E-02
  0.14846E-01
 -0.11352E-01
 -0.70566E-02
 -0.68731E-02
 -0.33877E-02
 -0.37179E-02
 -0.79832E-02
 -0.47679E-01
 -0.40258E-01
  0.14725E-01
  0.14865E-01
  0.45319E-02
  0.34604E-02
  0.12209E-01
  0.44973E-02
  0.67151E-02
  0.13586E-01
  0.15841E-01
  0.54131E-02
  0.16085E-01
  0.41468E-02
  0.81002E-02
  0.10975E-01
  0.99780E-02
  0.47843E-02
  0.52068E-02
  0.55599E-02
  0.65668E-02
  0.63916E-02
  0.71458E-02
  0.68189E-02
 -0.20786E-01
  0.58916E-02
  0.62913E-02
  0.14885E-01
 -0.19197E-01
  0.75937E-02
  0.49612E-02
  0.52437E-02
  0.27222E-02
  0.14351E-01
  0.80940E-02
  0.85087E-02
  0.87095E-02
  0.89381E-02
  0.12868E-01
 -0.57833E-03
  0.12358E-01
  0.51325E-02
 -0.28139E-01
  0.15195E-01
  0.13840E-01
  0.15906E-01
  0.52920E-02
  0.56372E-02
  0.40539E-02
  0.48368E-02
  0.52323E-02
  0.50644E-02
  0.54089E-02
  0.50069E-02
  0.52355E-02
  0.56910E-02
  0.14070E-01
  0.18661E-01
  0.20236E-01
  0.17284E-01
  0.48552E-02
  0.75345E-02
  0.11538E-01
  0.12320E-01
  0.12872E-01
 -0.89685E-02
 -0.48637E-02
 -0.59800E-01
 -0.13080E-01
 -0.11559E-02
 -0.15395E-01
  0.14300E-01
  0.40737E-02
  0.48390E-02
  0.72009E-02
 -0.46409E-03
  0.78023E-02
  0.21949E-01
 -0.13862E-01
  0.14446E-01
 -0.43566E-02
  0.21539E-01
  0.21914E-01
  0.19806E-01
  0.20502E-01
  0.22332E-01
  0.20529E-01
  0.19072E-01
 -0.59849E-02
  0.10013E-01
  0.90369E-02
  0.45596E-02
  0.13471E-01
  0.66011E-02
  0.82469E-02
  0.97943E-02
  0.37613E-02
  0.14592E-02
  0.10216E-01
 -0.14462E-01
 -0.56712E-02
 -0.49668E-01
 -0.47194E-01
 -0.40138E-01
 -0.54186E-01
 -0.31897E-01
  0.38915E-02
  0.14000E-01
  0.12970E-01
  0.15667E-01
  0.16677E-01
  0.18205E-01
  0.17151E-01
 -0.15352E-01
  0.78099E-03
  0.10837E-01
  0.71001E-02
  0.46845E-02
  0.14217E-01
  0.21819E-01
  0.68021E-02
 -0.74528E-02
  0.15127E-01
  0.13875E-01
  0.15024E-01
  0.14587E-01
 -0.26140E-01
  0.48499E-02
 -0.69118E-04
 -0.30891E-01
 -0.23451E-01
  0.15806E-01
  0.15667E-01
  0.15543E-01
  0.13506E-01
 -0.63311E-02
  0.29349E-02
  0.23911E-01
  0.24691E-01
  0.15084E-02
  0.17206E-01
  0.12934E-01
 -0.25180E-01
  0.38574E-02
  0.28558E-02
  0.10362E-02
 -0.10093E-02
 -0.95658E-04
  0.32405E-02
  0.79314E-02
  0.89151E-02
  0.80679E-02
  0.94781E-02
  0.94703E-02
  0.14847E-01
  0.16491E-01
  0.18138E-01
  0.18040E-01
 -0.55578E-02
 -0.10165E-01
 -0.11711E-01
  0.51153E-02
  0.50082E-02
  0.48387E-02
  0.54526E-02
  0.15800E-01
  0.51088E-02
 -0.21481E-01
 -0.72561E-02
 -0.77784E-02
 -0.13746E-01
 -0.10648E-01
  0.13973E-01
  0.13356E-01
  0.13127E-01
  0.13267E-01
  0.12997E-01
  0.13233E-01
  0.16681E-01
 -0.13786E-02
  0.94687E-03
  0.15599E-01
  0.15564E-01
  0.80653E-02
  0.16978E-02
  0.32477E-02
  0.15725E-01
  0.10027E-01
  0.11371E-01
 -0.97966E-02
  0.19678E-02
 -0.77490E-02
 -0.15710E-01
  0.15994E-01
 -0.38590E-02
  0.60988E-02
  0.59035E-02
  0.64402E-02
  0.69210E-02
 -0.30080E-02
  0.58354E-02
  0.14211E-01
  0.14265E-01
  0.20350E-02
  0.73096E-02
  0.17188E-01
 -0.69358E-02
  0.18569E-01
  0.19981E-01
 -0.13635E-01
  0.13985E-01
  0.14895E-01
  0.15147E-01
  0.15388E-01
  0.48884E-02
  0.16148E-01
  0.47457E-02
  0.13742E-01
  0.12871E-01
  0.12845E-01
 -0.15745E-01
 -0.19154E-01
  0.64234E-03
 -0.83387E-03
  0.26944E-02
  0.57095E-02
  0.61238E-02
 -0.80954E-03
  0.78622E-02
  0.90855E-02
  0.17453E-01
  0.69397E-02
  0.66923E-02
  0.11534E-01
  0.11183E-01
  0.12233E-01
  0.12510E-01
  0.13161E-01
  0.55475E-02
  0.92461E-02
  0.62903E-02
  0.62759E-02
  0.74263E-02
  0.49008E-02
  0.45841E-02
 -0.49231E-02
 -0.63451E-02
  0.81825E-02
  0.73217E-02
  0.87005E-02
  0.95103E-02
  0.99493E-02
  0.74202E-03
  0.11657E-01
  0.87361E-02
  0.13360E-01
  0.13496E-01
  0.19794E-01
 -0.92911E-02
  0.39030E-02
  0.46156E-02
  0.16011E-01
 -0.13419E-01
  0.53596E-02
  0.58986E-02
  0.62470E-02
  0.58713E-02
  0.60080E-02
  0.54131E-02
  0.54243E-02
  0.53828E-02
 -0.62281E-01
 -0.36431E-02
  0.62518E-02
  0.16066E-01
  0.15752E-01
  0.16199E-01
  0.88054E-02
  0.51960E-02
  0.41470E-02
  0.15907E-01
  0.13687E-01
  0.91576E-02
  0.91509E-02
  0.86687E-02
 -0.24231E-02
 -0.49858E-02
 -0.85619E-02
 -0.51539E-02
  0.18844E-01
 -0.79218E-02
 -0.94461E-02
 -0.37945E-02
 -0.32853E-02
 -0.34056E-02
  0.47447E-02
  0.55882E-02
 -0.30273E-02
 -0.18929E-02
 -0.22955E-02
  0.71826E-02
  0.63219E-02
  0.75117E-02
  0.66711E-02
  0.14737E-01
  0.14554E-02
  0.72781E-02
  0.17663E-01
  0.50043E-02
  0.54876E-02
  0.15820E-02
 -0.77152E-03
 -0.13164E-02
 -0.13481E-02
 -0.20070E-02
  0.51899E-02
  0.44111E-02
  0.42955E-02
  0.36069E-02
  0.46245E-02
  0.61936E-02
  0.66940E-02
  0.81355E-02
  0.40590E-02
  0.32793E-02
 -0.23404E-01
  0.38193E-02
  0.36877E-02
  0.11703E-01
  0.73423E-02
 -0.22313E-02
 -0.12651E-03
  0.53196E-02
 -0.12324E-01
 -0.21024E-02
  0.54318E-02
  0.63028E-02
  0.10650E-03
 -0.38253E-02
  0.12703E-04
  0.65278E-02
 -0.79888E-02
 -0.82149E-02
 -0.41158E-03
  0.43718E-02
 -0.30758E-02
  0.10146E-01
 -0.79232E-02
  0.53833E-02
 -0.39552E-02
 -0.69106E-02
 -0.39520E-02
  0.60137E-02
 -0.97625E-02
 -0.10762E-01
 -0.48119E-02
  0.77148E-02
  0.49391E-03
 -0.79990E-02
 -0.24797E-01
  0.71518E-02
  0.77828E-02
  0.11704E-01
  0.25332E-02
  0.36253E-02
 -0.97344E-02
 -0.18505E-02
  0.51335E-02
  0.42049E-02
 -0.46027E-02
  0.13420E-02
  0.82125E-02
  0.58032E-02
 -0.15589E-02
 -0.23573E-01
 -0.22662E-01
  0.42135E-02
 -0.12086E-02
  0.55094E-02
  0.45104E-02
 -0.67284E-02
  0.30782E-02
 -0.47030E-02
 -0.17460E-01
  0.72093E-02
 -0.19692E-02
  0.15684E-01
  0.78016E-03
 -0.23925E-01
  0.12629E-01
 -0.44909E-02
  0.48112E-02
  0.42262E-02
  0.88369E-02
 -0.67455E-02
  0.50755E-02
  0.16053E-01
 -0.65821E-02
  0.19091E-01
  0.88394E-02
  0.24144E-01
  0.19259E-01
  0.79103E-02
  0.17641E-01
 -0.19078E-01
 -0.21465E-01
  0.96431E-02
  0.12651E-01
  0.77832E-02
  0.16966E-01
 -0.66271E-02
  0.70147E-02
 -0.39309E-01
 -0.48439E-01
 -0.10650E-01
  0.12585E-01
 -0.68396E-02
 -0.50841E-01
 -0.90938E-02
  0.19171E-02
  0.39893E-02
 -0.47118E-01
 -0.47228E-01