# vtk DataFile Version 2.0
Unstructured Grid UFVM-ECOMOD
ASCII
DATASET UNSTRUCTURED_GRID
 POINTS         1810  float
  0.00000E+00  0.00000E+00  0.00000E+00
  0.40000E+01  0.00000E+00  0.00000E+00
  0.40000E+01  0.20000E+01  0.00000E+00
  0.00000E+00  0.20000E+01  0.00000E+00
  0.12217E+01  0.98333E+00  0.00000E+00
  0.81167E+00  0.11389E+01  0.00000E+00
  0.12217E+01  0.12944E+01  0.00000E+00
  0.10000E+00  0.00000E+00  0.00000E+00
  0.20000E+00  0.00000E+00  0.00000E+00
  0.30000E+00  0.00000E+00  0.00000E+00
  0.40000E+00  0.00000E+00  0.00000E+00
  0.50000E+00  0.00000E+00  0.00000E+00
  0.60000E+00  0.00000E+00  0.00000E+00
  0.70000E+00  0.00000E+00  0.00000E+00
  0.80000E+00  0.00000E+00  0.00000E+00
  0.90000E+00  0.00000E+00  0.00000E+00
  0.10000E+01  0.00000E+00  0.00000E+00
  0.11000E+01  0.00000E+00  0.00000E+00
  0.12000E+01  0.00000E+00  0.00000E+00
  0.13000E+01  0.00000E+00  0.00000E+00
  0.14000E+01  0.00000E+00  0.00000E+00
  0.15000E+01  0.00000E+00  0.00000E+00
  0.16000E+01  0.00000E+00  0.00000E+00
  0.17000E+01  0.00000E+00  0.00000E+00
  0.18000E+01  0.00000E+00  0.00000E+00
  0.19000E+01  0.00000E+00  0.00000E+00
  0.20000E+01  0.00000E+00  0.00000E+00
  0.21000E+01  0.00000E+00  0.00000E+00
  0.22000E+01  0.00000E+00  0.00000E+00
  0.23000E+01  0.00000E+00  0.00000E+00
  0.24000E+01  0.00000E+00  0.00000E+00
  0.25000E+01  0.00000E+00  0.00000E+00
  0.26000E+01  0.00000E+00  0.00000E+00
  0.27000E+01  0.00000E+00  0.00000E+00
  0.28000E+01  0.00000E+00  0.00000E+00
  0.29000E+01  0.00000E+00  0.00000E+00
  0.30000E+01  0.00000E+00  0.00000E+00
  0.31000E+01  0.00000E+00  0.00000E+00
  0.32000E+01  0.00000E+00  0.00000E+00
  0.33000E+01  0.00000E+00  0.00000E+00
  0.34000E+01  0.00000E+00  0.00000E+00
  0.35000E+01  0.00000E+00  0.00000E+00
  0.36000E+01  0.00000E+00  0.00000E+00
  0.37000E+01  0.00000E+00  0.00000E+00
  0.38000E+01  0.00000E+00  0.00000E+00
  0.39000E+01  0.00000E+00  0.00000E+00
  0.40000E+01  0.10000E+00  0.00000E+00
  0.40000E+01  0.20000E+00  0.00000E+00
  0.40000E+01  0.30000E+00  0.00000E+00
  0.40000E+01  0.40000E+00  0.00000E+00
  0.40000E+01  0.50000E+00  0.00000E+00
  0.40000E+01  0.60000E+00  0.00000E+00
  0.40000E+01  0.70000E+00  0.00000E+00
  0.40000E+01  0.80000E+00  0.00000E+00
  0.40000E+01  0.90000E+00  0.00000E+00
  0.40000E+01  0.10000E+01  0.00000E+00
  0.40000E+01  0.11000E+01  0.00000E+00
  0.40000E+01  0.12000E+01  0.00000E+00
  0.40000E+01  0.13000E+01  0.00000E+00
  0.40000E+01  0.14000E+01  0.00000E+00
  0.40000E+01  0.15000E+01  0.00000E+00
  0.40000E+01  0.16000E+01  0.00000E+00
  0.40000E+01  0.17000E+01  0.00000E+00
  0.40000E+01  0.18000E+01  0.00000E+00
  0.40000E+01  0.19000E+01  0.00000E+00
  0.39000E+01  0.20000E+01  0.00000E+00
  0.38000E+01  0.20000E+01  0.00000E+00
  0.37000E+01  0.20000E+01  0.00000E+00
  0.36000E+01  0.20000E+01  0.00000E+00
  0.35000E+01  0.20000E+01  0.00000E+00
  0.34000E+01  0.20000E+01  0.00000E+00
  0.33000E+01  0.20000E+01  0.00000E+00
  0.32000E+01  0.20000E+01  0.00000E+00
  0.31000E+01  0.20000E+01  0.00000E+00
  0.30000E+01  0.20000E+01  0.00000E+00
  0.29000E+01  0.20000E+01  0.00000E+00
  0.28000E+01  0.20000E+01  0.00000E+00
  0.27000E+01  0.20000E+01  0.00000E+00
  0.26000E+01  0.20000E+01  0.00000E+00
  0.25000E+01  0.20000E+01  0.00000E+00
  0.24000E+01  0.20000E+01  0.00000E+00
  0.23000E+01  0.20000E+01  0.00000E+00
  0.22000E+01  0.20000E+01  0.00000E+00
  0.21000E+01  0.20000E+01  0.00000E+00
  0.20000E+01  0.20000E+01  0.00000E+00
  0.19000E+01  0.20000E+01  0.00000E+00
  0.18000E+01  0.20000E+01  0.00000E+00
  0.17000E+01  0.20000E+01  0.00000E+00
  0.16000E+01  0.20000E+01  0.00000E+00
  0.15000E+01  0.20000E+01  0.00000E+00
  0.14000E+01  0.20000E+01  0.00000E+00
  0.13000E+01  0.20000E+01  0.00000E+00
  0.12000E+01  0.20000E+01  0.00000E+00
  0.11000E+01  0.20000E+01  0.00000E+00
  0.10000E+01  0.20000E+01  0.00000E+00
  0.90000E+00  0.20000E+01  0.00000E+00
  0.80000E+00  0.20000E+01  0.00000E+00
  0.70000E+00  0.20000E+01  0.00000E+00
  0.60000E+00  0.20000E+01  0.00000E+00
  0.50000E+00  0.20000E+01  0.00000E+00
  0.40000E+00  0.20000E+01  0.00000E+00
  0.30000E+00  0.20000E+01  0.00000E+00
  0.20000E+00  0.20000E+01  0.00000E+00
  0.10000E+00  0.20000E+01  0.00000E+00
  0.00000E+00  0.19000E+01  0.00000E+00
  0.00000E+00  0.18000E+01  0.00000E+00
  0.00000E+00  0.17000E+01  0.00000E+00
  0.00000E+00  0.16000E+01  0.00000E+00
  0.00000E+00  0.15000E+01  0.00000E+00
  0.00000E+00  0.14000E+01  0.00000E+00
  0.00000E+00  0.13000E+01  0.00000E+00
  0.00000E+00  0.12000E+01  0.00000E+00
  0.00000E+00  0.11000E+01  0.00000E+00
  0.00000E+00  0.10000E+01  0.00000E+00
  0.00000E+00  0.90000E+00  0.00000E+00
  0.00000E+00  0.80000E+00  0.00000E+00
  0.00000E+00  0.70000E+00  0.00000E+00
  0.00000E+00  0.60000E+00  0.00000E+00
  0.00000E+00  0.50000E+00  0.00000E+00
  0.00000E+00  0.40000E+00  0.00000E+00
  0.00000E+00  0.30000E+00  0.00000E+00
  0.00000E+00  0.20000E+00  0.00000E+00
  0.00000E+00  0.10000E+00  0.00000E+00
  0.11989E+01  0.99198E+00  0.00000E+00
  0.11761E+01  0.10006E+01  0.00000E+00
  0.11533E+01  0.10093E+01  0.00000E+00
  0.11306E+01  0.10179E+01  0.00000E+00
  0.11078E+01  0.10265E+01  0.00000E+00
  0.10850E+01  0.10352E+01  0.00000E+00
  0.10622E+01  0.10438E+01  0.00000E+00
  0.10394E+01  0.10525E+01  0.00000E+00
  0.10167E+01  0.10611E+01  0.00000E+00
  0.99389E+00  0.10697E+01  0.00000E+00
  0.97111E+00  0.10784E+01  0.00000E+00
  0.94833E+00  0.10870E+01  0.00000E+00
  0.92556E+00  0.10957E+01  0.00000E+00
  0.90278E+00  0.11043E+01  0.00000E+00
  0.88000E+00  0.11130E+01  0.00000E+00
  0.85722E+00  0.11216E+01  0.00000E+00
  0.83444E+00  0.11302E+01  0.00000E+00
  0.83444E+00  0.11475E+01  0.00000E+00
  0.85722E+00  0.11562E+01  0.00000E+00
  0.88000E+00  0.11648E+01  0.00000E+00
  0.90278E+00  0.11735E+01  0.00000E+00
  0.92556E+00  0.11821E+01  0.00000E+00
  0.94833E+00  0.11907E+01  0.00000E+00
  0.97111E+00  0.11994E+01  0.00000E+00
  0.99389E+00  0.12080E+01  0.00000E+00
  0.10167E+01  0.12167E+01  0.00000E+00
  0.10394E+01  0.12253E+01  0.00000E+00
  0.10622E+01  0.12340E+01  0.00000E+00
  0.10850E+01  0.12426E+01  0.00000E+00
  0.11078E+01  0.12512E+01  0.00000E+00
  0.11306E+01  0.12599E+01  0.00000E+00
  0.11533E+01  0.12685E+01  0.00000E+00
  0.11761E+01  0.12772E+01  0.00000E+00
  0.11989E+01  0.12858E+01  0.00000E+00
  0.12217E+01  0.12705E+01  0.00000E+00
  0.12217E+01  0.12466E+01  0.00000E+00
  0.12217E+01  0.12227E+01  0.00000E+00
  0.12217E+01  0.11987E+01  0.00000E+00
  0.12217E+01  0.11748E+01  0.00000E+00
  0.12217E+01  0.11508E+01  0.00000E+00
  0.12217E+01  0.11269E+01  0.00000E+00
  0.12217E+01  0.11030E+01  0.00000E+00
  0.12217E+01  0.10791E+01  0.00000E+00
  0.12217E+01  0.10551E+01  0.00000E+00
  0.12217E+01  0.10312E+01  0.00000E+00
  0.12217E+01  0.10073E+01  0.00000E+00
  0.12429E+01  0.10188E+01  0.00000E+00
  0.12399E+01  0.11882E+01  0.00000E+00
  0.21377E+01  0.78680E-01  0.00000E+00
  0.21538E+01  0.19174E+01  0.00000E+00
  0.83774E+00  0.11061E+01  0.00000E+00
  0.97541E+00  0.10554E+01  0.00000E+00
  0.11166E+01  0.10045E+01  0.00000E+00
  0.29463E+01  0.19156E+01  0.00000E+00
  0.26515E+01  0.81480E-01  0.00000E+00
  0.25477E+01  0.19110E+01  0.00000E+00
  0.30502E+01  0.68680E-01  0.00000E+00
  0.83912E+00  0.11750E+01  0.00000E+00
  0.95224E+00  0.12148E+01  0.00000E+00
  0.10661E+01  0.12580E+01  0.00000E+00
  0.11804E+01  0.13002E+01  0.00000E+00
  0.39119E+01  0.10505E+01  0.00000E+00
  0.17555E+01  0.84130E-01  0.00000E+00
  0.64649E+00  0.99150E-01  0.00000E+00
  0.17446E+01  0.19250E+01  0.00000E+00
  0.86600E-01  0.65000E+00  0.00000E+00
  0.14551E+01  0.78430E-01  0.00000E+00
  0.96058E+00  0.81690E-01  0.00000E+00
  0.33501E+01  0.19134E+01  0.00000E+00
  0.39162E+01  0.63967E+00  0.00000E+00
  0.82470E-01  0.14561E+01  0.00000E+00
  0.55009E+00  0.19215E+01  0.00000E+00
  0.85020E-01  0.95314E+00  0.00000E+00
  0.39167E+01  0.13623E+01  0.00000E+00
  0.33616E+01  0.95540E-01  0.00000E+00
  0.90682E+00  0.10774E+01  0.00000E+00
  0.10433E+01  0.10284E+01  0.00000E+00
  0.11799E+01  0.97718E+00  0.00000E+00
  0.12429E+01  0.10931E+01  0.00000E+00
  0.12436E+01  0.12583E+01  0.00000E+00
  0.85035E+00  0.19198E+01  0.00000E+00
  0.14457E+01  0.19288E+01  0.00000E+00
  0.11516E+01  0.19130E+01  0.00000E+00
  0.36450E+01  0.85340E-01  0.00000E+00
  0.84610E-01  0.34945E+00  0.00000E+00
  0.36500E+01  0.19134E+01  0.00000E+00
  0.35776E+00  0.89100E-01  0.00000E+00
  0.39086E+01  0.16476E+01  0.00000E+00
  0.39134E+01  0.35000E+00  0.00000E+00
  0.83900E-01  0.11460E+01  0.00000E+00
  0.35715E+00  0.19076E+01  0.00000E+00
  0.83410E-01  0.16549E+01  0.00000E+00
  0.12495E+01  0.81910E-01  0.00000E+00
  0.19505E+01  0.76550E-01  0.00000E+00
  0.23503E+01  0.82860E-01  0.00000E+00
  0.19504E+01  0.19252E+01  0.00000E+00
  0.23461E+01  0.19181E+01  0.00000E+00
  0.28427E+01  0.83720E-01  0.00000E+00
  0.31542E+01  0.19172E+01  0.00000E+00
  0.27508E+01  0.19148E+01  0.00000E+00
  0.39150E+01  0.84994E+00  0.00000E+00
  0.88020E+00  0.11939E+01  0.00000E+00
  0.99745E+00  0.12340E+01  0.00000E+00
  0.12424E+01  0.11389E+01  0.00000E+00
  0.11119E+01  0.12747E+01  0.00000E+00
  0.78910E-01  0.18478E+01  0.00000E+00
  0.38489E+01  0.73890E-01  0.00000E+00
  0.86600E-01  0.15000E+00  0.00000E+00
  0.38461E+01  0.19156E+01  0.00000E+00
  0.83750E-01  0.10487E+01  0.00000E+00
  0.16314E+00  0.10008E+01  0.00000E+00
  0.16591E+00  0.91287E+00  0.00000E+00
  0.23730E+00  0.95594E+00  0.00000E+00
  0.24013E+00  0.87512E+00  0.00000E+00
  0.30661E+00  0.91623E+00  0.00000E+00
  0.30296E+00  0.99591E+00  0.00000E+00
  0.30938E+00  0.83944E+00  0.00000E+00
  0.37444E+00  0.87856E+00  0.00000E+00
  0.37563E+00  0.80503E+00  0.00000E+00
  0.43612E+00  0.84332E+00  0.00000E+00
  0.43924E+00  0.77347E+00  0.00000E+00
  0.49710E+00  0.80859E+00  0.00000E+00
  0.50063E+00  0.74182E+00  0.00000E+00
  0.55658E+00  0.77549E+00  0.00000E+00
[...]
 POINT_DATA         1810
  
 SCALARS WL      float 1
 LOOKUP_TABLE default
  0.12142E-01
  0.16328E-02
 -0.95557E-03
  0.16452E-01
 -0.37058E-01
  0.26845E-01
 -0.10394E-01
  0.12164E-01
  0.12257E-01
  0.12400E-01
  0.12579E-01
  0.12730E-01
  0.12863E-01
  0.12855E-01
  0.12555E-01
  0.11992E-01
  0.11145E-01
  0.10119E-01
  0.89492E-02
  0.78353E-02
  0.68520E-02
  0.61377E-02
  0.56788E-02
  0.55307E-02
  0.56341E-02
  0.59961E-02
  0.66172E-02
  0.73798E-02
  0.82225E-02
  0.89406E-02
  0.94045E-02
  0.94402E-02
  0.90214E-02
  0.82078E-02
  0.71438E-02
  0.58809E-02
  0.46637E-02
  0.36818E-02
  0.30068E-02
  0.28106E-02
  0.29271E-02
  0.33285E-02
  0.37066E-02
  0.39028E-02
  0.35529E-02
  0.25878E-02
  0.00000E+00
  0.00000E+00
  0.00000E+00
  0.00000E+00
  0.00000E+00
  0.00000E+00
  0.00000E+00
  0.00000E+00
  0.00000E+00
  0.00000E+00
  0.00000E+00
  0.00000E+00
  0.00000E+00
  0.00000E+00
  0.00000E+00
  0.00000E+00
  0.00000E+00
  0.00000E+00
  0.00000E+00
 -0.99428E-03
 -0.72960E-03
  0.36680E-03
  0.22376E-02
  0.45505E-02
  0.64938E-02
  0.78580E-02
  0.86630E-02
  0.87392E-02
  0.81100E-02
  0.70599E-02
  0.59127E-02
  0.49586E-02
  0.43620E-02
  0.42397E-02
  0.46204E-02
  0.50214E-02
  0.54259E-02
  0.57557E-02
  0.59674E-02
  0.58832E-02
  0.55550E-02
  0.50322E-02
  0.44008E-02
  0.38474E-02
  0.36990E-02
  0.40831E-02
  0.49074E-02
  0.61977E-02
  0.76595E-02
  0.91951E-02
  0.10628E-01
  0.11868E-01
  0.12918E-01
  0.13811E-01
  0.14611E-01
  0.15292E-01
  0.15874E-01
  0.16289E-01
  0.16481E-01
  0.16515E-01
  0.16556E-01
  0.16592E-01
  0.16605E-01
  0.16574E-01
  0.16465E-01
  0.16285E-01
  0.16015E-01
  0.15665E-01
  0.15249E-01
  0.14783E-01
  0.14279E-01
  0.13785E-01
  0.13329E-01
  0.12936E-01
  0.12601E-01
  0.12345E-01
  0.12190E-01
 -0.17172E-01
 -0.10774E-01
 -0.60569E-02
 -0.31859E-02
  0.77945E-03
  0.37041E-02
  0.46922E-02
  0.68697E-02
  0.87586E-02
  0.10495E-01
  0.11794E-01
  0.13634E-01
  0.15023E-01
  0.17263E-01
  0.18818E-01
  0.20805E-01
  0.24046E-01
  0.25658E-01
  0.22465E-01
  0.21200E-01
  0.18985E-01
  0.18091E-01
  0.16055E-01
  0.15242E-01
  0.13723E-01
  0.12617E-01
  0.11495E-01
  0.10178E-01
  0.88626E-02
  0.75987E-02
  0.60371E-02
  0.38752E-02
  0.15734E-02
 -0.16098E-02
 -0.14297E-01
 -0.15341E-01
 -0.18164E-01
 -0.22187E-01
 -0.27842E-01
 -0.34994E-01
 -0.42553E-01
 -0.49228E-01
 -0.53867E-01
 -0.55327E-01
 -0.53537E-01
 -0.50312E-01
 -0.52440E-01
 -0.24871E-01
  0.76595E-02
  0.56507E-02
  0.21745E-01
  0.11196E-01
 -0.16615E-02
  0.75782E-02
  0.86503E-02
  0.41976E-02
  0.41487E-02
  0.22960E-01
  0.15676E-01
  0.95162E-02
  0.39677E-03
  0.46663E-04
  0.55322E-02
  0.12875E-01
  0.51896E-02
  0.14002E-01
  0.63695E-02
  0.11459E-01
  0.71663E-02
  0.41617E-02
  0.16529E-01
  0.13446E-01
  0.15442E-01
 -0.24690E-02
  0.28873E-02
  0.15923E-01
  0.57725E-02
 -0.12918E-01
 -0.52593E-01
 -0.14278E-01
  0.10030E-01
  0.35814E-02
  0.54270E-02
  0.39085E-02
  0.12748E-01
  0.10136E-02
  0.12527E-01
 -0.19189E-02
  0.32721E-02
  0.16117E-01
  0.14959E-01
  0.16476E-01
  0.82962E-02
  0.62551E-02
  0.92024E-02
  0.59436E-02
  0.48131E-02
  0.66272E-02
  0.87575E-02
  0.54212E-02
  0.29706E-02
  0.19852E-01
  0.13071E-01
 -0.39804E-01
  0.70087E-02
  0.16397E-01
  0.32102E-02
  0.12268E-01
 -0.99362E-03
  0.15814E-01
  0.15636E-01
  0.15270E-01
  0.15533E-01
  0.15171E-01
  0.15472E-01
  0.15818E-01
  0.15094E-01
  0.15417E-01
  0.15006E-01
  0.15305E-01
  0.14878E-01
  0.15103E-01
  0.14658E-01
  0.14785E-01
  0.14309E-01
  0.14308E-01
  0.13853E-01
  0.13676E-01
  0.15603E-01
  0.13303E-01
  0.12920E-01
  0.13383E-01
  0.12406E-01
  0.12047E-01
  0.11291E-01
  0.11088E-01
  0.10132E-01
  0.10095E-01
  0.89509E-02
  0.89380E-02
  0.75821E-02
  0.78141E-02
  0.62862E-02
  0.67940E-02
  0.52125E-02
  0.13895E-01
  0.12969E-01
  0.59455E-02
  0.43030E-02
  0.31800E-02
  0.24136E-02
  0.37305E-02
  0.21217E-02
  0.43482E-03
  0.54405E-03
 -0.15166E-02
 -0.82076E-03
  0.11093E-02
  0.29602E-03
 -0.18338E-02
 -0.51401E-04
 -0.22502E-02
  0.35721E-03
 -0.17048E-02
  0.17396E-02
  0.15202E-04
  0.38705E-02
  0.26529E-02
  0.63938E-02
  0.54606E-02
  0.85182E-02
  0.69801E-02
  0.89925E-02
  0.41870E-02
  0.56966E-02
 -0.26094E-02
 -0.57183E-03
  0.52310E-02
 -0.14509E-02
 -0.68563E-02
 -0.84570E-02
 -0.51135E-02
 -0.12893E-01
 -0.11070E-01
 -0.94355E-02
 -0.15826E-01
  0.63684E-02
 -0.95720E-02
 -0.12168E-01
 -0.17614E-01
 -0.11415E-01
 -0.15351E-01
 -0.92005E-02
 -0.45870E-02
 -0.41244E-02
 -0.32330E-03
 -0.11551E-02
 -0.45340E-02
 -0.29066E-02
  0.70512E-03
 -0.16829E-02
  0.20214E-02
 -0.25893E-03
 -0.45619E-02
 -0.25839E-02
  0.10652E-02
 -0.12152E-02
  0.14890E-02
  0.16456E-02
 -0.13509E-02
 -0.33468E-02
 -0.44309E-02
 -0.29901E-02
 -0.69647E-02
 -0.40839E-02
 -0.54355E-02
 -0.65408E-02
 -0.91756E-02
 -0.39734E-02
 -0.63673E-02
 -0.82874E-02
 -0.44377E-02
 -0.22043E-02
 -0.23402E-02
  0.16469E-02
  0.28894E-02
 -0.54998E-02
 -0.79883E-02
  0.30349E-03
  0.75185E-02
 -0.10293E-02
  0.48337E-02
  0.53394E-02
  0.11033E-01
  0.73661E-02
 -0.25147E-02
  0.10176E-02
 -0.55081E-02
  0.58264E-02
  0.61768E-02
 -0.11729E-02
  0.14823E-02
  0.40382E-02
  0.60123E-02
  0.58286E-02
  0.60469E-02
  0.62226E-02
  0.68168E-02
  0.68430E-02
  0.59674E-02
  0.59995E-02
 -0.15761E-02
 -0.32200E-02
  0.93608E-03
  0.14861E-01
  0.14657E-01
  0.75307E-02
  0.76350E-02
 -0.16049E-02
  0.34856E-02
  0.82249E-02
  0.82407E-02
  0.66685E-02
  0.87146E-02
  0.86266E-02
 -0.61295E-02
 -0.67907E-02
 -0.60939E-03
 -0.24478E-02
  0.18881E-02
  0.62970E-03
  0.37248E-02
  0.28148E-02
  0.42284E-03
  0.24883E-02
  0.13673E-02
  0.28029E-02
  0.28430E-02
  0.46842E-02
  0.34337E-02
  0.41791E-02
  0.35798E-02
  0.57353E-02
  0.41250E-02
  0.52022E-02
  0.39577E-02
 -0.67768E-02
 -0.76123E-02
 -0.65530E-02
 -0.64830E-02
 -0.37672E-02
 -0.33162E-02
  0.12543E-03
  0.50264E-03
 -0.37873E-02
 -0.15356E-02
  0.24141E-02
  0.40465E-03
  0.42434E-02
  0.25698E-02
  0.54215E-02
  0.35074E-02
  0.52568E-02
  0.33305E-02
  0.45570E-02
  0.24920E-02
  0.59788E-03
 -0.71376E-03
  0.12147E-02
 -0.23686E-02
 -0.18844E-03
 -0.39022E-02
 -0.77504E-02
 -0.90027E-02
 -0.48190E-02
 -0.89316E-02
 -0.14870E-01
 -0.12981E-01
 -0.19801E-01
 -0.76831E-02
 -0.98776E-02
 -0.60100E-02
 -0.70607E-02
 -0.41214E-02
 -0.46201E-02
 -0.21159E-02
 -0.19727E-02
 -0.19094E-03
  0.56894E-03
  0.18181E-02
  0.27719E-02
  0.36884E-02
  0.48162E-02
  0.53505E-02
  0.65821E-02
 -0.10403E-01
 -0.29393E-02
  0.11828E-02
  0.68285E-02
  0.81102E-02
  0.81081E-02
  0.94756E-02
  0.95880E-02
  0.10842E-01
  0.10594E-01
  0.11938E-01
  0.11540E-01
  0.12764E-01
  0.13462E-01
  0.13964E-01
  0.13361E-01
  0.14381E-01
  0.15091E-01
  0.15288E-01
  0.16080E-01
  0.16036E-01
  0.15382E-01
  0.15958E-01
  0.16580E-01
  0.16369E-01
  0.16909E-01
  0.15450E-01
  0.16608E-01
  0.17019E-01
  0.16688E-01
  0.16414E-01
  0.17294E-01
  0.16010E-01
  0.81905E-02
  0.97257E-02
 -0.36653E-02
  0.16959E-01
  0.17505E-01
  0.16659E-01
  0.17175E-01
  0.17702E-01
 -0.22249E-01
 -0.25734E-01
 -0.28587E-01
 -0.29502E-01
 -0.24628E-01
 -0.27634E-01
 -0.22486E-01
 -0.29273E-01
  0.16416E-03
 -0.36194E-02
 -0.31014E-01
 -0.36560E-01
 -0.36347E-01
 -0.46607E-01
 -0.39647E-01
 -0.50305E-01
 -0.32147E-01
  0.36283E-02
 -0.11882E-01
  0.81446E-02
  0.64549E-02
  0.57158E-02
  0.56508E-02
 -0.21932E-02
  0.13824E-01
  0.12864E-01
  0.13400E-01
  0.66896E-02
  0.80010E-02
  0.74089E-02
 -0.30441E-02
 -0.28365E-03
  0.33343E-02
 -0.44554E-02
  0.86386E-02
  0.59537E-02
  0.24650E-02
  0.13351E-02
  0.32089E-02
  0.58373E-02
 -0.36254E-01
 -0.46795E-01
 -0.60977E-01
 -0.56315E-01
  0.24796E-02
  0.98259E-02
  0.82646E-02
  0.10039E-01
  0.11746E-02
  0.58541E-02
  0.17244E-01
  0.17746E-01
  0.18375E-01
  0.18386E-01
  0.17594E-01
  0.18193E-01
  0.80727E-02
  0.38003E-02
 -0.47743E-01
 -0.32595E-01
  0.44093E-02
  0.69645E-02
  0.60049E-02
  0.55043E-02
  0.53624E-02
  0.51633E-02
  0.52395E-02
  0.50735E-02
  0.32006E-03
 -0.14213E-02
 -0.55886E-02
 -0.10690E-02
 -0.44278E-02
  0.91907E-03
  0.30780E-02
  0.45577E-02
  0.47547E-02
  0.58907E-02
  0.64121E-02
  0.90171E-02
  0.75694E-02
  0.92057E-02
  0.77798E-02
  0.95889E-02
  0.59030E-02
  0.60122E-02
  0.39616E-02
  0.39306E-02
  0.16503E-02
  0.62398E-02
  0.17225E-01
  0.17439E-01
  0.18340E-01
  0.17412E-01
  0.23443E-02
  0.91919E-02
 -0.29205E-01
  0.15154E-02
 -0.11704E-02
 -0.61525E-03
 -0.38403E-02
 -0.42420E-02
 -0.65369E-02
  0.69900E-02
  0.11270E-01
  0.66542E-02
  0.19251E-01
 -0.15297E-02
  0.11706E-01
  0.12741E-01
  0.69129E-02
 -0.34329E-02
  0.16633E-01
  0.16352E-01
  0.17078E-01
  0.15782E-01
  0.16301E-01
  0.89607E-02
  0.14851E-01
  0.15117E-01
  0.12426E-01
  0.79541E-02
  0.97643E-02
  0.10335E-01
 -0.21158E-01
  0.82136E-02
 -0.40361E-02
  0.13082E-01
 -0.66210E-01
 -0.60494E-01
 -0.45267E-01
 -0.46684E-01
  0.33319E-02
  0.24938E-02
  0.16859E-01
  0.58219E-02
 -0.31768E-01
 -0.32236E-01
 -0.42460E-01
 -0.29337E-01
  0.52233E-02
  0.13148E-01
  0.14178E-01
  0.53348E-02
  0.55260E-02
  0.64591E-02
 -0.34994E-01
 -0.23934E-01
 -0.25125E-01
 -0.17760E-01
 -0.15532E-02
  0.15545E-01
  0.52107E-02
  0.53439E-02
  0.40973E-02
 -0.13798E-02
  0.15330E-02
  0.16947E-01
  0.17326E-02
  0.67824E-02
  0.54616E-02
  0.69283E-02
  0.81052E-02
 -0.39938E-01
 -0.27241E-01
 -0.27830E-01
 -0.31074E-01
 -0.18168E-01
  0.83231E-02
  0.58002E-02
  0.66554E-02
 -0.95699E-02
  0.28249E-02
  0.10470E-02
  0.13601E-01
  0.13587E-01
  0.13576E-01
  0.12057E-01
  0.11853E-01
  0.41357E-02
  0.12537E-02
  0.42571E-02
  0.68901E-02
  0.75425E-02
  0.63200E-02
  0.86897E-02
 -0.27450E-02
  0.18988E-01
  0.20125E-01
 -0.19349E-01
  0.46959E-02
  0.47550E-02
  0.52485E-02
  0.84470E-02
 -0.78544E-02
 -0.59073E-02
  0.19462E-01
  0.20715E-01
  0.19587E-01
  0.20603E-01
  0.70701E-02
  0.13860E-01
  0.13672E-01
  0.14345E-01
  0.14168E-01
  0.14785E-01
 -0.16271E-01
  0.10782E-01
  0.11375E-01
  0.76179E-02
  0.78826E-02
 -0.29542E-01
  0.17075E-01
  0.16568E-01
  0.11639E-01
  0.12078E-01
  0.11931E-01
  0.12456E-01
  0.12412E-01
  0.12785E-01
  0.12849E-01
  0.13058E-01
  0.12954E-01
  0.13092E-01
  0.13286E-01
  0.13195E-01
  0.13460E-01
  0.13277E-01
  0.13026E-01
  0.12958E-01
  0.77549E-02
  0.14646E-01
  0.15663E-01
  0.15001E-01
  0.16368E-01
  0.17138E-01
  0.19203E-01
  0.55641E-02
  0.12055E-01
  0.61202E-02
  0.12955E-01
  0.13600E-01
  0.13362E-01
  0.13721E-01
  0.68034E-02
  0.65543E-02
  0.47527E-02
  0.10678E-01
  0.13336E-01
  0.53108E-02
  0.14713E-01
  0.90765E-02
  0.91902E-02
  0.88874E-02
 -0.18425E-01
  0.71033E-02
 -0.68079E-02
 -0.76772E-02
 -0.64955E-01
 -0.66108E-01
 -0.61916E-01
  0.20359E-01
 -0.18659E-01
 -0.14819E-01
  0.67482E-02
 -0.48030E-01
 -0.16885E-01
 -0.69125E-02
 -0.36553E-02
 -0.13273E-01
  0.12265E-01
  0.82031E-02
  0.83221E-02
  0.94948E-02
  0.51249E-02
  0.56694E-02
  0.43764E-02
 -0.16769E-01
 -0.13417E-01
 -0.12367E-01
 -0.10642E-01
 -0.98458E-02
 -0.87726E-02
  0.14653E-01
  0.15173E-01
  0.15307E-01
  0.15614E-01
  0.15751E-01
  0.15544E-01
  0.15979E-01
  0.16070E-01
  0.13474E-01
  0.65652E-02
  0.55678E-02
  0.47542E-02
  0.50043E-02
  0.11480E-01
  0.10041E-01
  0.95128E-02
  0.81115E-02
  0.40118E-02
  0.33943E-02
  0.19211E-02
  0.47010E-02
  0.13933E-01
  0.13605E-01
  0.21318E-02
  0.19730E-01
 -0.33149E-01
 -0.22558E-01
 -0.12486E-02
 -0.47933E-02
  0.18082E-02
 -0.14483E-01
  0.83756E-02
  0.81903E-02
 -0.98423E-02
  0.10165E-01
  0.53669E-02
  0.54524E-02
  0.29286E-02
  0.17134E-02
  0.18932E-03
  0.47577E-03
  0.19090E-02
  0.11958E-02
  0.24371E-02
  0.63558E-02
  0.74710E-02
  0.53220E-02
 -0.31787E-01
 -0.29582E-01
 -0.26946E-01
  0.73240E-02
  0.78353E-02
 -0.83305E-02
 -0.73566E-02
 -0.22630E-01
  0.18590E-01
  0.18319E-01
  0.18031E-01
  0.34326E-02
  0.40054E-02
 -0.67712E-02
 -0.61645E-02
 -0.43851E-02
  0.59463E-02
  0.43557E-02
  0.59617E-02
  0.37125E-02
 -0.38921E-02
 -0.10112E-02
 -0.27559E-02
 -0.49117E-03
 -0.20324E-02
  0.14902E-02
  0.33291E-02
  0.45951E-02
  0.21437E-02
  0.60526E-02
  0.46107E-02
  0.13347E-02
 -0.12996E-02
 -0.33001E-02
  0.12382E-01
  0.12447E-01
  0.22202E-02
  0.32023E-02
 -0.43663E-02
 -0.56070E-02
 -0.35509E-02
 -0.67985E-02
  0.33815E-02
  0.16757E-01
  0.16509E-01
  0.16338E-01
  0.34183E-02
 -0.24286E-01
 -0.19918E-01
  0.47220E-02
 -0.13703E-01
  0.43988E-02
  0.42173E-02
  0.44052E-02
  0.25000E-02
  0.28368E-02
  0.26986E-03
  0.82743E-02
  0.15532E-01
 -0.23047E-02
 -0.58465E-04
  0.28931E-02
 -0.39122E-02
  0.73073E-02
  0.11844E-01
  0.11547E-01
  0.85562E-02
 -0.11340E-01
  0.22374E-01
  0.60140E-02
  0.12969E-01
  0.55943E-02
  0.58234E-02
  0.61123E-02
  0.62160E-02
  0.13788E-01
  0.55930E-02
  0.60947E-02
 -0.45855E-02
  0.55933E-02
  0.43364E-02
  0.12901E-01
  0.12866E-01
  0.12838E-01
 -0.11107E-01
 -0.38273E-03
 -0.96720E-02
  0.34238E-02
  0.40997E-02
  0.46916E-02
  0.16567E-01
  0.15969E-01
  0.13176E-03
  0.40707E-02
 -0.11722E-01
  0.89837E-02
  0.93217E-02
  0.84370E-02
  0.13142E-01
  0.11102E-01
  0.10229E-01
  0.12876E-01
  0.14775E-01
  0.16359E-01
 -0.70579E-02
  0.32459E-02
  0.76991E-02
  0.15560E-01
 -0.61792E-01
 -0.62516E-01
 -0.55101E-01
  0.65882E-02
  0.68011E-02
  0.15937E-01
 -0.72803E-02
 -0.65437E-02
  0.44940E-02
  0.38391E-02
  0.35850E-02
  0.32416E-02
 -0.11682E-01
 -0.12940E-01
  0.51026E-02
  0.39782E-02
  0.72338E-02
  0.74989E-02
  0.90355E-02
  0.49971E-02
  0.55931E-02
  0.14309E-01
  0.16230E-01
  0.16268E-01
  0.16200E-01
  0.16316E-01
  0.16358E-01
  0.16314E-01
  0.16358E-01
  0.16267E-01
  0.72954E-02
  0.58397E-02
 -0.53546E-02
  0.39450E-02
  0.30515E-02
  0.30053E-02
  0.92145E-02
  0.48408E-02
  0.46389E-02
  0.41559E-02
  0.13860E-01
  0.33344E-02
 -0.83656E-02
  0.10384E-01
  0.32613E-02
 -0.21544E-02
 -0.88652E-02
  0.57228E-02
  0.65894E-02
  0.16302E-01
  0.16339E-01
 -0.59129E-01
 -0.10159E-01
 -0.67733E-02
 -0.15515E-01
  0.38666E-02
  0.15173E-01
 -0.77534E-02
 -0.54254E-02
 -0.45338E-02
 -0.23553E-02
 -0.32540E-02
 -0.91469E-02
 -0.44441E-01
 -0.36782E-01
  0.14865E-01
  0.15089E-01
  0.53953E-02
  0.42475E-02
  0.12481E-01
  0.50474E-02
  0.74784E-02
  0.13269E-01
  0.16237E-01
  0.54206E-02
  0.16355E-01
  0.51211E-02
  0.84656E-02
  0.11181E-01
  0.10131E-01
  0.56547E-02
  0.52929E-02
  0.63662E-02
  0.74641E-02
  0.71430E-02
  0.76834E-02
  0.73863E-02
 -0.18247E-01
  0.49096E-02
  0.46610E-02
  0.14567E-01
 -0.22971E-01
  0.83851E-02
  0.47427E-02
  0.52125E-02
  0.24060E-02
  0.14123E-01
  0.75190E-02
  0.79646E-02
  0.82932E-02
  0.86247E-02
  0.13146E-01
 -0.43866E-03
  0.12505E-01
  0.40750E-02
 -0.25957E-01
  0.15522E-01
  0.14033E-01
  0.16106E-01
  0.63679E-02
  0.68253E-02
  0.51423E-02
  0.60455E-02
  0.65305E-02
  0.62630E-02
  0.66106E-02
  0.61719E-02
  0.62041E-02
  0.66290E-02
  0.14376E-01
  0.18474E-01
  0.20048E-01
  0.17076E-01
  0.51374E-02
  0.70587E-02
  0.11914E-01
  0.12451E-01
  0.12705E-01
 -0.10569E-01
 -0.35098E-02
 -0.58147E-01
 -0.14632E-01
 -0.13775E-02
 -0.99432E-02
  0.14600E-01
  0.35797E-02
  0.59378E-02
  0.74891E-02
  0.66221E-03
  0.83745E-02
  0.21848E-01
 -0.12265E-01
  0.14266E-01
 -0.72926E-02
  0.21680E-01
  0.22114E-01
  0.20072E-01
  0.20769E-01
  0.22592E-01
  0.20819E-01
  0.19366E-01
 -0.63477E-02
  0.10314E-01
  0.93465E-02
  0.42809E-02
  0.12733E-01
  0.64162E-02
  0.79253E-02
  0.93320E-02
  0.40115E-02
  0.20473E-02
  0.96764E-02
 -0.16363E-01
 -0.63037E-02
 -0.55272E-01
 -0.56006E-01
 -0.48803E-01
 -0.61616E-01
 -0.36899E-01
  0.28191E-02
  0.13469E-01
  0.12430E-01
  0.15192E-01
  0.16263E-01
  0.17855E-01
  0.16737E-01
 -0.11925E-01
 -0.57620E-03
  0.10961E-01
  0.63114E-02
  0.40006E-02
  0.13701E-01
  0.21624E-01
  0.67702E-02
 -0.14985E-01
  0.15377E-01
  0.14099E-01
  0.15026E-01
  0.14520E-01
 -0.25268E-01
  0.46787E-02
 -0.57561E-03
 -0.26662E-01
 -0.18941E-01
  0.15943E-01
  0.15829E-01
  0.15726E-01
  0.12819E-01
 -0.43167E-02
  0.26502E-02
  0.23985E-01
  0.24619E-01
  0.16459E-02
  0.17481E-01
  0.12418E-01
 -0.29117E-01
  0.45162E-02
  0.36294E-02
  0.45771E-03
 -0.22857E-02
 -0.14914E-02
  0.40023E-02
  0.72675E-02
  0.84409E-02
  0.87004E-02
  0.95300E-02
  0.75616E-02
  0.15102E-01
  0.16770E-01
  0.18435E-01
  0.18341E-01
 -0.48558E-02
 -0.95785E-02
 -0.10131E-01
  0.57689E-02
  0.54507E-02
  0.55669E-02
  0.55810E-02
  0.16065E-01
  0.60653E-02
 -0.17753E-01
 -0.49394E-02
 -0.40070E-02
 -0.79416E-02
 -0.40148E-02
  0.14255E-01
  0.12648E-01
  0.12467E-01
  0.12642E-01
  0.12472E-01
  0.12719E-01
  0.16806E-01
 -0.16051E-02
  0.85506E-03
  0.15954E-01
  0.15886E-01
  0.81464E-02
  0.17299E-02
  0.32813E-02
  0.15850E-01
  0.10250E-01
  0.11625E-01
 -0.79474E-02
  0.67589E-03
 -0.57554E-02
 -0.14346E-01
  0.16202E-01
 -0.45316E-02
  0.70867E-02
  0.71700E-02
  0.72900E-02
  0.80887E-02
 -0.42762E-02
  0.60828E-02
  0.13960E-01
  0.14129E-01
  0.26832E-02
  0.53752E-02
  0.17100E-01
 -0.77952E-02
  0.18208E-01
  0.19703E-01
 -0.10648E-01
  0.14245E-01
  0.15292E-01
  0.15582E-01
  0.15825E-01
  0.36589E-02
  0.16488E-01
  0.59037E-02
  0.13542E-01
  0.12303E-01
  0.12481E-01
 -0.15191E-01
 -0.15617E-01
  0.14651E-02
 -0.49728E-03
  0.41122E-02
  0.57757E-02
  0.59453E-02
 -0.14013E-02
  0.69425E-02
  0.84120E-02
  0.17039E-01
  0.76264E-02
  0.73535E-02
  0.11323E-01
  0.10887E-01
  0.12133E-01
  0.12479E-01
  0.13237E-01
  0.56543E-02
  0.75065E-02
  0.62384E-02
  0.59964E-02
  0.78043E-02
  0.58341E-02
  0.52567E-02
 -0.50559E-02
 -0.59074E-02
  0.94145E-02
  0.85209E-02
  0.97691E-02
  0.10542E-01
  0.10763E-01
  0.84083E-03
  0.11842E-01
  0.88214E-02
  0.13221E-01
  0.13478E-01
  0.20103E-01
 -0.90232E-02
 -0.17683E-02
  0.45489E-02
  0.16355E-01
 -0.15067E-01
  0.50067E-02
  0.41820E-02
  0.41865E-02
  0.36407E-02
  0.38775E-02
  0.32888E-02
  0.35019E-02
  0.38238E-02
 -0.57960E-01
 -0.32683E-02
  0.74200E-02
  0.16434E-01
  0.16174E-01
  0.16458E-01
  0.84993E-02
  0.45896E-02
  0.39917E-02
  0.16096E-01
  0.13496E-01
  0.94577E-02
  0.93020E-02
  0.92769E-02
 -0.74984E-03
 -0.31254E-02
 -0.91556E-02
 -0.79588E-02
  0.19133E-01
 -0.52175E-02
 -0.10158E-01
 -0.45895E-02
 -0.29220E-02
 -0.30541E-02
  0.51743E-02
  0.50156E-02
 -0.37588E-02
 -0.94031E-03
 -0.14495E-02
  0.65298E-02
  0.57944E-02
  0.70633E-02
  0.63832E-02
  0.14993E-01
  0.35704E-02
  0.75789E-02
  0.17964E-01
  0.60316E-02
  0.56792E-02
  0.14839E-02
 -0.25809E-03
 -0.97972E-03
 -0.11300E-02
 -0.16254E-02
  0.52368E-02
  0.28816E-02
  0.33689E-02
  0.54799E-02
  0.62017E-02
  0.78598E-02
  0.83407E-02
  0.84524E-02
  0.42746E-02
  0.28941E-02
 -0.21778E-01
  0.36202E-02
  0.24356E-02
  0.11858E-01
  0.68414E-02
 -0.42066E-02
  0.10898E-02
  0.53170E-02
 -0.17917E-01
  0.44385E-03
  0.65682E-02
  0.69659E-02
  0.11070E-02
 -0.43829E-02
 -0.14625E-02
  0.46165E-02
 -0.90615E-02
 -0.67198E-02
 -0.12629E-02
  0.40270E-02
 -0.48887E-02
  0.10358E-01
 -0.62023E-02
  0.58091E-02
 -0.21199E-02
 -0.48532E-02
 -0.45778E-02
  0.64585E-02
 -0.20999E-01
 -0.73517E-02
 -0.30181E-02
  0.85659E-02
  0.28542E-02
 -0.10873E-01
 -0.30836E-01
  0.62182E-02
  0.84357E-02
  0.11915E-01
  0.10295E-02
  0.33299E-02
 -0.52493E-02
 -0.29487E-02
  0.48862E-02
  0.30006E-02
 -0.42210E-02
  0.18167E-02
  0.87179E-02
  0.58686E-02
 -0.16869E-02
 -0.21704E-01
 -0.21668E-01
  0.37610E-02
  0.24631E-02
  0.56092E-02
  0.40884E-02
 -0.77484E-02
  0.30207E-02
 -0.56970E-02
 -0.19943E-01
  0.65159E-02
 -0.16722E-02
  0.16118E-01
  0.21553E-02
 -0.27433E-01
  0.12549E-01
 -0.75817E-02
  0.41661E-02
  0.31719E-02
  0.90986E-02
 -0.92965E-02
  0.55107E-02
  0.16389E-01
 -0.76387E-02
  0.19382E-01
  0.86550E-02
  0.24457E-01
  0.19578E-01
  0.72877E-02
  0.17936E-01
 -0.14487E-01
 -0.17013E-01
  0.97107E-02
  0.12841E-01
  0.77752E-02
  0.16988E-01
 -0.47247E-02
  0.77199E-02
 -0.48137E-01
 -0.55771E-01
 -0.10705E-01
  0.12279E-01
 -0.41580E-02
 -0.56035E-01
 -0.13977E-01
  0.28125E-02
  0.41531E-02
 -0.46939E-01
 -0.46356E-01