# vtk DataFile Version 2.0
Unstructured Grid UFVM-ECOMOD
ASCII
DATASET UNSTRUCTURED_GRID
 POINTS         1810  float
  0.00000E+00  0.00000E+00  0.00000E+00
  0.40000E+01  0.00000E+00  0.00000E+00
  0.40000E+01  0.20000E+01  0.00000E+00
  0.00000E+00  0.20000E+01  0.00000E+00
  0.12217E+01  0.98333E+00  0.00000E+00
  0.81167E+00  0.11389E+01  0.00000E+00
  0.12217E+01  0.12944E+01  0.00000E+00
  0.10000E+00  0.00000E+00  0.00000E+00
  0.20000E+00  0.00000E+00  0.00000E+00
  0.30000E+00  0.00000E+00  0.00000E+00
  0.40000E+00  0.00000E+00  0.00000E+00
  0.50000E+00  0.00000E+00  0.00000E+00
  0.60000E+00  0.00000E+00  0.00000E+00
  0.70000E+00  0.00000E+00  0.00000E+00
  0.80000E+00  0.00000E+00  0.00000E+00
  0.90000E+00  0.00000E+00  0.00000E+00
  0.10000E+01  0.00000E+00  0.00000E+00
  0.11000E+01  0.00000E+00  0.00000E+00
  0.12000E+01  0.00000E+00  0.00000E+00
  0.13000E+01  0.00000E+00  0.00000E+00
  0.14000E+01  0.00000E+00  0.00000E+00
  0.15000E+01  0.00000E+00  0.00000E+00
  0.16000E+01  0.00000E+00  0.00000E+00
  0.17000E+01  0.00000E+00  0.00000E+00
  0.18000E+01  0.00000E+00  0.00000E+00
  0.19000E+01  0.00000E+00  0.00000E+00
  0.20000E+01  0.00000E+00  0.00000E+00
  0.21000E+01  0.00000E+00  0.00000E+00
  0.22000E+01  0.00000E+00  0.00000E+00
  0.23000E+01  0.00000E+00  0.00000E+00
  0.24000E+01  0.00000E+00  0.00000E+00
  0.25000E+01  0.00000E+00  0.00000E+00
  0.26000E+01  0.00000E+00  0.00000E+00
  0.27000E+01  0.00000E+00  0.00000E+00
  0.28000E+01  0.00000E+00  0.00000E+00
  0.29000E+01  0.00000E+00  0.00000E+00
  0.30000E+01  0.00000E+00  0.00000E+00
  0.31000E+01  0.00000E+00  0.00000E+00
  0.32000E+01  0.00000E+00  0.00000E+00
  0.33000E+01  0.00000E+00  0.00000E+00
  0.34000E+01  0.00000E+00  0.00000E+00
  0.35000E+01  0.00000E+00  0.00000E+00
  0.36000E+01  0.00000E+00  0.00000E+00
  0.37000E+01  0.00000E+00  0.00000E+00
  0.38000E+01  0.00000E+00  0.00000E+00
  0.39000E+01  0.00000E+00  0.00000E+00
  0.40000E+01  0.10000E+00  0.00000E+00
  0.40000E+01  0.20000E+00  0.00000E+00
  0.40000E+01  0.30000E+00  0.00000E+00
  0.40000E+01  0.40000E+00  0.00000E+00
  0.40000E+01  0.50000E+00  0.00000E+00
  0.40000E+01  0.60000E+00  0.00000E+00
  0.40000E+01  0.70000E+00  0.00000E+00
  0.40000E+01  0.80000E+00  0.00000E+00
  0.40000E+01  0.90000E+00  0.00000E+00
  0.40000E+01  0.10000E+01  0.00000E+00
  0.40000E+01  0.11000E+01  0.00000E+00
  0.40000E+01  0.12000E+01  0.00000E+00
  0.40000E+01  0.13000E+01  0.00000E+00
  0.40000E+01  0.14000E+01  0.00000E+00
  0.40000E+01  0.15000E+01  0.00000E+00
  0.40000E+01  0.16000E+01  0.00000E+00
  0.40000E+01  0.17000E+01  0.00000E+00
  0.40000E+01  0.18000E+01  0.00000E+00
  0.40000E+01  0.19000E+01  0.00000E+00
  0.39000E+01  0.20000E+01  0.00000E+00
  0.38000E+01  0.20000E+01  0.00000E+00
  0.37000E+01  0.20000E+01  0.00000E+00
  0.36000E+01  0.20000E+01  0.00000E+00
  0.35000E+01  0.20000E+01  0.00000E+00
  0.34000E+01  0.20000E+01  0.00000E+00
  0.33000E+01  0.20000E+01  0.00000E+00
  0.32000E+01  0.20000E+01  0.00000E+00
  0.31000E+01  0.20000E+01  0.00000E+00
  0.30000E+01  0.20000E+01  0.00000E+00
  0.29000E+01  0.20000E+01  0.00000E+00
  0.28000E+01  0.20000E+01  0.00000E+00
  0.27000E+01  0.20000E+01  0.00000E+00
  0.26000E+01  0.20000E+01  0.00000E+00
  0.25000E+01  0.20000E+01  0.00000E+00
  0.24000E+01  0.20000E+01  0.00000E+00
  0.23000E+01  0.20000E+01  0.00000E+00
  0.22000E+01  0.20000E+01  0.00000E+00
  0.21000E+01  0.20000E+01  0.00000E+00
  0.20000E+01  0.20000E+01  0.00000E+00
  0.19000E+01  0.20000E+01  0.00000E+00
  0.18000E+01  0.20000E+01  0.00000E+00
  0.17000E+01  0.20000E+01  0.00000E+00
  0.16000E+01  0.20000E+01  0.00000E+00
  0.15000E+01  0.20000E+01  0.00000E+00
  0.14000E+01  0.20000E+01  0.00000E+00
  0.13000E+01  0.20000E+01  0.00000E+00
  0.12000E+01  0.20000E+01  0.00000E+00
  0.11000E+01  0.20000E+01  0.00000E+00
  0.10000E+01  0.20000E+01  0.00000E+00
  0.90000E+00  0.20000E+01  0.00000E+00
  0.80000E+00  0.20000E+01  0.00000E+00
  0.70000E+00  0.20000E+01  0.00000E+00
  0.60000E+00  0.20000E+01  0.00000E+00
  0.50000E+00  0.20000E+01  0.00000E+00
  0.40000E+00  0.20000E+01  0.00000E+00
  0.30000E+00  0.20000E+01  0.00000E+00
  0.20000E+00  0.20000E+01  0.00000E+00
  0.10000E+00  0.20000E+01  0.00000E+00
  0.00000E+00  0.19000E+01  0.00000E+00
  0.00000E+00  0.18000E+01  0.00000E+00
  0.00000E+00  0.17000E+01  0.00000E+00
  0.00000E+00  0.16000E+01  0.00000E+00
  0.00000E+00  0.15000E+01  0.00000E+00
  0.00000E+00  0.14000E+01  0.00000E+00
  0.00000E+00  0.13000E+01  0.00000E+00
  0.00000E+00  0.12000E+01  0.00000E+00
  0.00000E+00  0.11000E+01  0.00000E+00
  0.00000E+00  0.10000E+01  0.00000E+00
  0.00000E+00  0.90000E+00  0.00000E+00
  0.00000E+00  0.80000E+00  0.00000E+00
  0.00000E+00  0.70000E+00  0.00000E+00
  0.00000E+00  0.60000E+00  0.00000E+00
  0.00000E+00  0.50000E+00  0.00000E+00
  0.00000E+00  0.40000E+00  0.00000E+00
  0.00000E+00  0.30000E+00  0.00000E+00
  0.00000E+00  0.20000E+00  0.00000E+00
  0.00000E+00  0.10000E+00  0.00000E+00
  0.11989E+01  0.99198E+00  0.00000E+00
  0.11761E+01  0.10006E+01  0.00000E+00
  0.11533E+01  0.10093E+01  0.00000E+00
  0.11306E+01  0.10179E+01  0.00000E+00
  0.11078E+01  0.10265E+01  0.00000E+00
  0.10850E+01  0.10352E+01  0.00000E+00
  0.10622E+01  0.10438E+01  0.00000E+00
  0.10394E+01  0.10525E+01  0.00000E+00
  0.10167E+01  0.10611E+01  0.00000E+00
  0.99389E+00  0.10697E+01  0.00000E+00
  0.97111E+00  0.10784E+01  0.00000E+00
  0.94833E+00  0.10870E+01  0.00000E+00
  0.92556E+00  0.10957E+01  0.00000E+00
  0.90278E+00  0.11043E+01  0.00000E+00
  0.88000E+00  0.11130E+01  0.00000E+00
  0.85722E+00  0.11216E+01  0.00000E+00
  0.83444E+00  0.11302E+01  0.00000E+00
  0.83444E+00  0.11475E+01  0.00000E+00
  0.85722E+00  0.11562E+01  0.00000E+00
  0.88000E+00  0.11648E+01  0.00000E+00
  0.90278E+00  0.11735E+01  0.00000E+00
  0.92556E+00  0.11821E+01  0.00000E+00
  0.94833E+00  0.11907E+01  0.00000E+00
  0.97111E+00  0.11994E+01  0.00000E+00
  0.99389E+00  0.12080E+01  0.00000E+00
  0.10167E+01  0.12167E+01  0.00000E+00
  0.10394E+01  0.12253E+01  0.00000E+00
  0.10622E+01  0.12340E+01  0.00000E+00
  0.10850E+01  0.12426E+01  0.00000E+00
  0.11078E+01  0.12512E+01  0.00000E+00
  0.11306E+01  0.12599E+01  0.00000E+00
  0.11533E+01  0.12685E+01  0.00000E+00
  0.11761E+01  0.12772E+01  0.00000E+00
  0.11989E+01  0.12858E+01  0.00000E+00
  0.12217E+01  0.12705E+01  0.00000E+00
  0.12217E+01  0.12466E+01  0.00000E+00
  0.12217E+01  0.12227E+01  0.00000E+00
  0.12217E+01  0.11987E+01  0.00000E+00
  0.12217E+01  0.11748E+01  0.00000E+00
  0.12217E+01  0.11508E+01  0.00000E+00
  0.12217E+01  0.11269E+01  0.00000E+00
  0.12217E+01  0.11030E+01  0.00000E+00
  0.12217E+01  0.10791E+01  0.00000E+00
  0.12217E+01  0.10551E+01  0.00000E+00
  0.12217E+01  0.10312E+01  0.00000E+00
  0.12217E+01  0.10073E+01  0.00000E+00
  0.12429E+01  0.10188E+01  0.00000E+00
  0.12399E+01  0.11882E+01  0.00000E+00
  0.21377E+01  0.78680E-01  0.00000E+00
  0.21538E+01  0.19174E+01  0.00000E+00
  0.83774E+00  0.11061E+01  0.00000E+00
  0.97541E+00  0.10554E+01  0.00000E+00
  0.11166E+01  0.10045E+01  0.00000E+00
  0.29463E+01  0.19156E+01  0.00000E+00
  0.26515E+01  0.81480E-01  0.00000E+00
  0.25477E+01  0.19110E+01  0.00000E+00
  0.30502E+01  0.68680E-01  0.00000E+00
  0.83912E+00  0.11750E+01  0.00000E+00
  0.95224E+00  0.12148E+01  0.00000E+00
  0.10661E+01  0.12580E+01  0.00000E+00
  0.11804E+01  0.13002E+01  0.00000E+00
  0.39119E+01  0.10505E+01  0.00000E+00
  0.17555E+01  0.84130E-01  0.00000E+00
  0.64649E+00  0.99150E-01  0.00000E+00
  0.17446E+01  0.19250E+01  0.00000E+00
  0.86600E-01  0.65000E+00  0.00000E+00
  0.14551E+01  0.78430E-01  0.00000E+00
  0.96058E+00  0.81690E-01  0.00000E+00
  0.33501E+01  0.19134E+01  0.00000E+00
  0.39162E+01  0.63967E+00  0.00000E+00
  0.82470E-01  0.14561E+01  0.00000E+00
  0.55009E+00  0.19215E+01  0.00000E+00
  0.85020E-01  0.95314E+00  0.00000E+00
  0.39167E+01  0.13623E+01  0.00000E+00
  0.33616E+01  0.95540E-01  0.00000E+00
  0.90682E+00  0.10774E+01  0.00000E+00
  0.10433E+01  0.10284E+01  0.00000E+00
  0.11799E+01  0.97718E+00  0.00000E+00
  0.12429E+01  0.10931E+01  0.00000E+00
  0.12436E+01  0.12583E+01  0.00000E+00
  0.85035E+00  0.19198E+01  0.00000E+00
  0.14457E+01  0.19288E+01  0.00000E+00
  0.11516E+01  0.19130E+01  0.00000E+00
  0.36450E+01  0.85340E-01  0.00000E+00
  0.84610E-01  0.34945E+00  0.00000E+00
  0.36500E+01  0.19134E+01  0.00000E+00
  0.35776E+00  0.89100E-01  0.00000E+00
  0.39086E+01  0.16476E+01  0.00000E+00
  0.39134E+01  0.35000E+00  0.00000E+00
  0.83900E-01  0.11460E+01  0.00000E+00
  0.35715E+00  0.19076E+01  0.00000E+00
  0.83410E-01  0.16549E+01  0.00000E+00
  0.12495E+01  0.81910E-01  0.00000E+00
  0.19505E+01  0.76550E-01  0.00000E+00
  0.23503E+01  0.82860E-01  0.00000E+00
  0.19504E+01  0.19252E+01  0.00000E+00
  0.23461E+01  0.19181E+01  0.00000E+00
  0.28427E+01  0.83720E-01  0.00000E+00
  0.31542E+01  0.19172E+01  0.00000E+00
  0.27508E+01  0.19148E+01  0.00000E+00
  0.39150E+01  0.84994E+00  0.00000E+00
  0.88020E+00  0.11939E+01  0.00000E+00
  0.99745E+00  0.12340E+01  0.00000E+00
  0.12424E+01  0.11389E+01  0.00000E+00
  0.11119E+01  0.12747E+01  0.00000E+00
  0.78910E-01  0.18478E+01  0.00000E+00
  0.38489E+01  0.73890E-01  0.00000E+00
  0.86600E-01  0.15000E+00  0.00000E+00
  0.38461E+01  0.19156E+01  0.00000E+00
  0.83750E-01  0.10487E+01  0.00000E+00
  0.16314E+00  0.10008E+01  0.00000E+00
  0.16591E+00  0.91287E+00  0.00000E+00
  0.23730E+00  0.95594E+00  0.00000E+00
  0.24013E+00  0.87512E+00  0.00000E+00
  0.30661E+00  0.91623E+00  0.00000E+00
  0.30296E+00  0.99591E+00  0.00000E+00
  0.30938E+00  0.83944E+00  0.00000E+00
  0.37444E+00  0.87856E+00  0.00000E+00
  0.37563E+00  0.80503E+00  0.00000E+00
  0.43612E+00  0.84332E+00  0.00000E+00
  0.43924E+00  0.77347E+00  0.00000E+00
  0.49710E+00  0.80859E+00  0.00000E+00
  0.50063E+00  0.74182E+00  0.00000E+00
  0.55658E+00  0.77549E+00  0.00000E+00
[...]
 POINT_DATA         1810
  
 SCALARS WL      float 1
 LOOKUP_TABLE default
  0.12646E-01
  0.20425E-02
 -0.81805E-03
  0.15980E-01
 -0.29361E-01
  0.26774E-01
 -0.17697E-01
  0.12776E-01
  0.13047E-01
  0.13338E-01
  0.13578E-01
  0.13660E-01
  0.13550E-01
  0.13122E-01
  0.12279E-01
  0.11179E-01
  0.98947E-02
  0.85660E-02
  0.72382E-02
  0.61236E-02
  0.52631E-02
  0.47823E-02
  0.46548E-02
  0.48558E-02
  0.53371E-02
  0.60606E-02
  0.69444E-02
  0.78170E-02
  0.85847E-02
  0.90129E-02
  0.90841E-02
  0.87072E-02
  0.80150E-02
  0.71655E-02
  0.63026E-02
  0.54711E-02
  0.49272E-02
  0.45737E-02
  0.46541E-02
  0.50523E-02
  0.56001E-02
  0.62183E-02
  0.65183E-02
  0.63050E-02
  0.53035E-02
  0.35377E-02
  0.00000E+00
  0.00000E+00
  0.00000E+00
  0.00000E+00
  0.00000E+00
  0.00000E+00
  0.00000E+00
  0.00000E+00
  0.00000E+00
  0.00000E+00
  0.00000E+00
  0.00000E+00
  0.00000E+00
  0.00000E+00
  0.00000E+00
  0.00000E+00
  0.00000E+00
  0.00000E+00
  0.00000E+00
 -0.10601E-02
 -0.10338E-02
 -0.39195E-03
  0.77215E-03
  0.23445E-02
  0.38633E-02
  0.53923E-02
  0.68094E-02
  0.77629E-02
  0.81330E-02
  0.77461E-02
  0.68735E-02
  0.58928E-02
  0.51490E-02
  0.46697E-02
  0.45619E-02
  0.44527E-02
  0.43857E-02
  0.43752E-02
  0.45268E-02
  0.46818E-02
  0.47685E-02
  0.47784E-02
  0.47808E-02
  0.48285E-02
  0.51243E-02
  0.57183E-02
  0.64895E-02
  0.75457E-02
  0.86960E-02
  0.98986E-02
  0.11041E-01
  0.12031E-01
  0.12862E-01
  0.13562E-01
  0.14196E-01
  0.14755E-01
  0.15281E-01
  0.15741E-01
  0.16026E-01
  0.16070E-01
  0.16129E-01
  0.16190E-01
  0.16239E-01
  0.16249E-01
  0.16192E-01
  0.16064E-01
  0.15849E-01
  0.15556E-01
  0.15201E-01
  0.14800E-01
  0.14368E-01
  0.13951E-01
  0.13573E-01
  0.13255E-01
  0.12988E-01
  0.12789E-01
  0.12668E-01
 -0.14213E-01
 -0.88633E-02
 -0.47393E-02
 -0.22225E-02
  0.14773E-02
  0.41826E-02
  0.49902E-02
  0.70331E-02
  0.88069E-02
  0.10445E-01
  0.11658E-01
  0.13431E-01
  0.14763E-01
  0.16958E-01
  0.18469E-01
  0.20427E-01
  0.23620E-01
  0.25977E-01
  0.22828E-01
  0.21610E-01
  0.19464E-01
  0.18614E-01
  0.16637E-01
  0.15849E-01
  0.14349E-01
  0.13231E-01
  0.12059E-01
  0.10654E-01
  0.91875E-02
  0.76906E-02
  0.57825E-02
  0.31047E-02
  0.13902E-04
 -0.45584E-02
 -0.22312E-01
 -0.21606E-01
 -0.23225E-01
 -0.26311E-01
 -0.31519E-01
 -0.37542E-01
 -0.43235E-01
 -0.46964E-01
 -0.48167E-01
 -0.46579E-01
 -0.43016E-01
 -0.39327E-01
 -0.41244E-01
 -0.28990E-01
  0.81314E-02
  0.44712E-02
  0.21361E-01
  0.11101E-01
 -0.81832E-03
  0.79247E-02
  0.75754E-02
  0.48148E-02
  0.47148E-02
  0.23280E-01
  0.16275E-01
  0.99374E-02
 -0.15713E-02
 -0.23018E-03
  0.50949E-02
  0.13345E-01
  0.46703E-02
  0.14200E-01
  0.49166E-02
  0.10413E-01
  0.46699E-02
  0.38880E-02
  0.16127E-01
  0.13284E-01
  0.15379E-01
 -0.49281E-02
  0.53430E-02
  0.15643E-01
  0.59997E-02
 -0.10683E-01
 -0.48703E-01
 -0.21558E-01
  0.10580E-01
  0.48311E-02
  0.69304E-02
  0.65419E-02
  0.13193E-01
  0.99067E-04
  0.13491E-01
 -0.26773E-02
  0.33603E-02
  0.15911E-01
  0.14483E-01
  0.15993E-01
  0.65940E-02
  0.65161E-02
  0.90973E-02
  0.45904E-02
  0.45961E-02
  0.59506E-02
  0.73305E-02
  0.63439E-02
  0.29334E-02
  0.20289E-01
  0.13701E-01
 -0.41491E-01
  0.69763E-02
  0.15883E-01
  0.45279E-02
  0.12834E-01
 -0.11975E-02
  0.15678E-01
  0.15538E-01
  0.15261E-01
  0.15454E-01
  0.15187E-01
  0.15385E-01
  0.15639E-01
  0.15106E-01
  0.15299E-01
  0.14990E-01
  0.15148E-01
  0.14817E-01
  0.14903E-01
  0.14546E-01
  0.14549E-01
  0.14157E-01
  0.14047E-01
  0.13665E-01
  0.13398E-01
  0.15328E-01
  0.13087E-01
  0.12639E-01
  0.13062E-01
  0.12104E-01
  0.11764E-01
  0.11011E-01
  0.10806E-01
  0.98718E-02
  0.98052E-02
  0.86972E-02
  0.87313E-02
  0.73940E-02
  0.75473E-02
  0.60888E-02
  0.64831E-02
  0.49701E-02
  0.13832E-01
  0.12647E-01
  0.55526E-02
  0.39717E-02
  0.30402E-02
  0.21446E-02
  0.32648E-02
  0.16852E-02
  0.20326E-03
  0.91494E-04
 -0.17664E-02
 -0.13730E-02
  0.42479E-03
 -0.53035E-03
 -0.26475E-02
 -0.11791E-02
 -0.36012E-02
 -0.12849E-02
 -0.38906E-02
 -0.58249E-03
 -0.32795E-02
  0.77699E-03
 -0.17105E-02
  0.27904E-02
  0.48935E-03
  0.47571E-02
  0.21188E-02
  0.57191E-02
  0.15322E-02
  0.42421E-02
 -0.28476E-02
 -0.56273E-03
  0.59165E-02
  0.13163E-02
 -0.57437E-02
 -0.38216E-02
  0.12545E-02
 -0.49193E-02
 -0.89969E-02
 -0.97529E-03
 -0.85520E-02
  0.38074E-02
 -0.47379E-02
 -0.12028E-01
 -0.14769E-01
 -0.16015E-01
 -0.16984E-01
 -0.15318E-01
 -0.11088E-01
 -0.92176E-02
 -0.42186E-02
 -0.35583E-02
 -0.69918E-02
 -0.34877E-02
 -0.24941E-03
 -0.14562E-02
  0.17516E-02
 -0.10646E-04
 -0.36276E-02
 -0.24006E-02
  0.12700E-02
 -0.80121E-03
  0.46002E-03
  0.25056E-02
  0.24328E-03
 -0.27919E-02
 -0.22868E-02
 -0.88327E-04
 -0.34187E-02
 -0.49723E-02
 -0.17571E-02
 -0.42637E-02
 -0.62724E-02
  0.24532E-02
 -0.48244E-02
 -0.73385E-02
 -0.39857E-02
 -0.23178E-02
 -0.29571E-03
  0.48329E-02
  0.37172E-02
 -0.59242E-02
 -0.91102E-02
 -0.57704E-02
  0.73936E-02
 -0.94050E-03
  0.64855E-02
  0.61900E-02
  0.10744E-01
  0.69216E-02
 -0.27941E-02
  0.95941E-03
 -0.71106E-02
  0.71254E-02
  0.70847E-02
 -0.50398E-03
  0.22837E-02
  0.37079E-02
  0.64683E-02
  0.74981E-02
  0.73247E-02
  0.74578E-02
  0.74148E-02
  0.69929E-02
  0.69541E-02
  0.67023E-02
  0.24473E-03
 -0.21526E-02
  0.24551E-02
  0.14540E-01
  0.14728E-01
  0.78747E-02
  0.75588E-02
 -0.16029E-02
  0.28555E-02
  0.83104E-02
  0.79509E-02
  0.76182E-02
  0.84878E-02
  0.81188E-02
 -0.59114E-02
 -0.65436E-02
  0.20326E-02
  0.34300E-03
  0.36721E-02
  0.23317E-02
  0.46912E-02
  0.37616E-02
  0.13280E-02
  0.31255E-02
  0.13521E-02
  0.32488E-02
  0.26267E-02
  0.52236E-02
  0.41699E-02
  0.45192E-02
  0.25341E-02
  0.60372E-02
  0.54363E-02
  0.61814E-02
  0.42073E-02
 -0.83370E-02
 -0.63332E-02
 -0.66666E-02
 -0.43896E-02
 -0.29706E-02
 -0.11321E-02
  0.87488E-03
  0.21341E-02
 -0.48101E-03
 -0.12941E-02
  0.25406E-02
  0.64421E-03
  0.38198E-02
  0.25622E-02
  0.42749E-02
  0.25507E-02
  0.38352E-02
  0.18298E-02
  0.31152E-02
  0.95310E-03
 -0.13921E-02
 -0.25725E-02
  0.18573E-03
 -0.31643E-02
 -0.29728E-03
 -0.31748E-02
 -0.79325E-02
 -0.67169E-02
 -0.27786E-02
 -0.51888E-02
 -0.94268E-02
 -0.64489E-02
 -0.94193E-02
 -0.35805E-02
 -0.40269E-02
 -0.24443E-02
 -0.29561E-02
 -0.15352E-02
 -0.22575E-02
 -0.36352E-03
 -0.81426E-03
  0.11213E-02
  0.14364E-02
  0.29992E-02
  0.36906E-02
  0.49022E-02
  0.58678E-02
  0.66082E-02
  0.77071E-02
 -0.38172E-02
 -0.63612E-03
  0.26278E-02
  0.80547E-02
  0.91947E-02
  0.91155E-02
  0.10425E-01
  0.10496E-01
  0.11662E-01
  0.11402E-01
  0.12594E-01
  0.12163E-01
  0.13226E-01
  0.13948E-01
  0.14266E-01
  0.13630E-01
  0.14504E-01
  0.15237E-01
  0.15275E-01
  0.16084E-01
  0.15899E-01
  0.15232E-01
  0.15706E-01
  0.16336E-01
  0.16034E-01
  0.16575E-01
  0.15190E-01
  0.16209E-01
  0.16621E-01
  0.16253E-01
  0.15975E-01
  0.17059E-01
  0.16160E-01
  0.90682E-02
  0.10556E-01
 -0.70581E-02
  0.16527E-01
  0.17115E-01
  0.16221E-01
  0.16745E-01
  0.17300E-01
 -0.14153E-01
 -0.11724E-01
 -0.18190E-01
 -0.16761E-01
 -0.10936E-01
 -0.20904E-01
 -0.15815E-01
 -0.30216E-01
  0.26580E-02
 -0.43599E-03
 -0.31852E-01
 -0.43286E-01
 -0.42112E-01
 -0.54965E-01
 -0.50861E-01
 -0.60724E-01
 -0.22199E-01
  0.46100E-02
 -0.13029E-01
  0.92479E-02
  0.52800E-02
  0.62796E-02
  0.58504E-02
 -0.46497E-02
  0.13918E-01
  0.13101E-01
  0.13464E-01
  0.61271E-02
  0.74021E-02
  0.66539E-02
 -0.63812E-03
  0.14002E-02
  0.38993E-02
 -0.29751E-02
  0.78680E-02
  0.60243E-02
  0.18322E-02
  0.14549E-02
  0.41582E-02
  0.66658E-02
 -0.50669E-01
 -0.58381E-01
 -0.64426E-01
 -0.60193E-01
  0.83593E-03
  0.74914E-02
  0.89914E-02
  0.10758E-01
  0.15829E-02
  0.43422E-02
  0.16816E-01
  0.17339E-01
  0.18017E-01
  0.18015E-01
  0.17183E-01
  0.17815E-01
  0.71055E-02
  0.27894E-02
 -0.52968E-01
 -0.38091E-01
  0.58039E-02
  0.82284E-02
  0.62274E-02
  0.52802E-02
  0.51001E-02
  0.45690E-02
  0.45896E-02
  0.41857E-02
  0.26095E-02
 -0.95202E-04
 -0.40718E-02
 -0.22484E-02
 -0.64624E-02
 -0.23214E-02
  0.14393E-02
  0.25507E-02
  0.65237E-02
  0.71203E-02
  0.67979E-02
  0.88459E-02
  0.74916E-02
  0.90617E-02
  0.77356E-02
  0.94611E-02
  0.59448E-02
  0.60977E-02
  0.41556E-02
  0.41830E-02
  0.20406E-02
  0.63573E-02
  0.16812E-01
  0.17045E-01
  0.17979E-01
  0.17040E-01
  0.28001E-02
  0.85906E-02
 -0.39650E-01
  0.19804E-02
 -0.52138E-03
 -0.99063E-04
 -0.30206E-02
 -0.23056E-02
 -0.44949E-02
  0.67734E-02
  0.12040E-01
  0.78136E-02
  0.18947E-01
 -0.16962E-02
  0.12425E-01
  0.13446E-01
  0.64991E-02
 -0.19705E-02
  0.16240E-01
  0.15983E-01
  0.16727E-01
  0.15441E-01
  0.15975E-01
  0.84117E-02
  0.14548E-01
  0.14832E-01
  0.12643E-01
  0.84244E-02
  0.90178E-02
  0.98157E-02
 -0.33675E-01
  0.92827E-02
 -0.40377E-02
  0.13124E-01
 -0.62232E-01
 -0.56081E-01
 -0.50618E-01
 -0.46039E-01
  0.28829E-02
  0.26620E-02
  0.16434E-01
  0.57466E-02
 -0.37257E-01
 -0.33295E-01
 -0.38568E-01
 -0.27824E-01
  0.70943E-02
  0.13829E-01
  0.14809E-01
  0.49830E-02
  0.51312E-02
  0.56095E-02
 -0.30474E-01
 -0.21805E-01
 -0.21748E-01
 -0.15922E-01
 -0.57549E-02
  0.15164E-01
  0.46544E-02
  0.46160E-02
  0.42187E-02
 -0.63932E-03
  0.20478E-02
  0.16526E-01
  0.28163E-02
  0.64398E-02
  0.37409E-02
  0.59793E-02
  0.75821E-02
 -0.45146E-01
 -0.32617E-01
 -0.22823E-01
 -0.25325E-01
 -0.14046E-01
  0.88843E-02
  0.54933E-02
  0.71370E-02
 -0.60354E-02
  0.42075E-02
 -0.20485E-04
  0.13350E-01
  0.13359E-01
  0.13298E-01
  0.11876E-01
  0.11702E-01
  0.33919E-02
  0.13259E-02
  0.65736E-02
  0.59627E-02
  0.63842E-02
  0.52287E-02
  0.74996E-02
 -0.21394E-02
  0.18706E-01
  0.19915E-01
 -0.23392E-01
  0.38499E-02
  0.37421E-02
  0.41442E-02
  0.77830E-02
 -0.12682E-01
 -0.85002E-02
  0.19277E-01
  0.20621E-01
  0.19509E-01
  0.20639E-01
  0.57482E-02
  0.13777E-01
  0.13563E-01
  0.14127E-01
  0.13931E-01
  0.14447E-01
 -0.15430E-01
  0.10124E-01
  0.10961E-01
  0.70668E-02
  0.69570E-02
 -0.39052E-01
  0.16759E-01
  0.16154E-01
  0.11139E-01
  0.11846E-01
  0.11716E-01
  0.12440E-01
  0.12346E-01
  0.12936E-01
  0.12905E-01
  0.13338E-01
  0.13352E-01
  0.13605E-01
  0.13659E-01
  0.13767E-01
  0.13888E-01
  0.13858E-01
  0.13730E-01
  0.13601E-01
  0.72154E-02
  0.15269E-01
  0.16209E-01
  0.15542E-01
  0.16810E-01
  0.17599E-01
  0.19238E-01
  0.43018E-02
  0.12734E-01
  0.71720E-02
  0.12961E-01
  0.14046E-01
  0.13906E-01
  0.14142E-01
  0.68021E-02
  0.68085E-02
  0.48159E-02
  0.10474E-01
  0.13133E-01
  0.69090E-02
  0.14845E-01
  0.87608E-02
  0.85368E-02
  0.80562E-02
 -0.61299E-02
  0.83460E-02
 -0.61798E-02
 -0.76418E-02
 -0.63232E-01
 -0.59685E-01
 -0.58860E-01
  0.20106E-01
 -0.25326E-01
 -0.13782E-01
  0.62061E-02
 -0.39351E-01
 -0.14666E-01
 -0.94007E-02
 -0.76395E-02
 -0.11763E-01
  0.12009E-01
  0.86084E-02
  0.93223E-02
  0.10299E-01
  0.39717E-02
  0.44057E-02
  0.33365E-02
 -0.12260E-01
 -0.41449E-02
 -0.86471E-02
 -0.54056E-02
 -0.96680E-02
 -0.79555E-02
  0.14296E-01
  0.14735E-01
  0.14887E-01
  0.15121E-01
  0.15279E-01
  0.15029E-01
  0.15463E-01
  0.15582E-01
  0.13936E-01
  0.66498E-02
  0.54185E-02
  0.50410E-02
  0.53616E-02
  0.11363E-01
  0.99850E-02
  0.94986E-02
  0.81696E-02
  0.36383E-02
  0.35334E-02
  0.26104E-02
  0.38256E-02
  0.13584E-01
  0.13268E-01
  0.70613E-02
  0.19889E-01
 -0.38224E-01
 -0.27945E-01
 -0.46314E-03
 -0.36870E-02
  0.23407E-02
 -0.10513E-01
  0.76206E-02
  0.70796E-02
 -0.17752E-01
  0.98331E-02
  0.49160E-02
  0.46403E-02
  0.35498E-02
  0.27764E-02
  0.14341E-02
  0.19334E-02
  0.32460E-02
  0.27481E-02
  0.39662E-02
  0.57197E-02
  0.71695E-02
  0.45318E-02
 -0.24665E-01
 -0.23578E-01
 -0.26151E-01
  0.66743E-02
  0.71774E-02
 -0.12532E-01
 -0.95022E-02
 -0.19171E-01
  0.18331E-01
  0.18476E-01
  0.18055E-01
  0.42650E-02
  0.47493E-02
 -0.55459E-02
 -0.68834E-02
 -0.45108E-02
  0.53738E-02
  0.51570E-02
  0.45587E-02
  0.14332E-02
 -0.36090E-02
 -0.81542E-03
 -0.39442E-02
 -0.17273E-02
 -0.28536E-02
 -0.50129E-03
  0.15905E-02
  0.23863E-02
 -0.90331E-03
  0.43448E-02
  0.19825E-02
 -0.26108E-02
 -0.51316E-02
 -0.74231E-02
  0.13101E-01
  0.12326E-01
  0.38286E-02
  0.48437E-02
 -0.36704E-02
 -0.64763E-02
 -0.39473E-02
 -0.40514E-02
  0.46980E-02
  0.16344E-01
  0.16126E-01
  0.15976E-01
  0.38263E-02
 -0.21737E-01
 -0.22565E-01
  0.42911E-02
 -0.11701E-01
  0.46980E-02
  0.45526E-02
  0.41365E-02
  0.19063E-02
  0.19364E-02
 -0.18782E-04
  0.74823E-02
  0.15126E-01
 -0.29843E-02
 -0.44334E-02
  0.57253E-03
 -0.56434E-02
  0.84894E-02
  0.12239E-01
  0.11923E-01
  0.85666E-02
 -0.16182E-01
  0.22385E-01
  0.74286E-02
  0.12924E-01
  0.60017E-02
  0.64713E-02
  0.70774E-02
  0.69992E-02
  0.14074E-01
  0.44123E-02
  0.47290E-02
 -0.34498E-02
  0.58525E-02
  0.30560E-02
  0.13402E-01
  0.13623E-01
  0.13664E-01
 -0.16629E-01
 -0.41027E-02
 -0.53208E-02
  0.50503E-02
  0.48107E-02
  0.51934E-02
  0.16168E-01
  0.15568E-01
  0.49521E-03
  0.41879E-02
 -0.23049E-01
  0.80307E-02
  0.86054E-02
  0.74621E-02
  0.13707E-01
  0.10799E-01
  0.93089E-02
  0.12702E-01
  0.14529E-01
  0.15964E-01
 -0.64147E-02
  0.11338E-02
  0.76246E-02
  0.15988E-01
 -0.55455E-01
 -0.53277E-01
 -0.52801E-01
  0.75589E-02
  0.76005E-02
  0.15555E-01
 -0.69382E-02
 -0.67235E-02
  0.48483E-02
  0.45596E-02
  0.45226E-02
  0.44878E-02
 -0.12236E-01
 -0.97787E-02
  0.39861E-02
  0.30219E-02
  0.80969E-02
  0.76066E-02
  0.90589E-02
  0.42219E-02
  0.44148E-02
  0.14849E-01
  0.15731E-01
  0.15800E-01
  0.15734E-01
  0.15881E-01
  0.15947E-01
  0.15942E-01
  0.15955E-01
  0.15932E-01
  0.68074E-02
  0.45921E-02
 -0.76775E-02
  0.45574E-02
  0.46329E-02
  0.48214E-02
  0.10005E-01
  0.41789E-02
  0.38186E-02
  0.58093E-02
  0.14213E-01
  0.23820E-02
 -0.10701E-01
  0.11159E-01
  0.21102E-02
 -0.97021E-02
 -0.67822E-02
  0.63596E-02
  0.66942E-02
  0.15966E-01
  0.15999E-01
 -0.50545E-01
 -0.95620E-02
 -0.83851E-02
 -0.31932E-02
  0.55319E-02
  0.14789E-01
 -0.13007E-01
 -0.79965E-02
 -0.80024E-02
 -0.40625E-02
 -0.42178E-02
 -0.75019E-02
 -0.47840E-01
 -0.40509E-01
  0.14703E-01
  0.14811E-01
  0.42039E-02
  0.31858E-02
  0.12183E-01
  0.42448E-02
  0.64230E-02
  0.13707E-01
  0.15713E-01
  0.52488E-02
  0.15999E-01
  0.38378E-02
  0.79045E-02
  0.10981E-01
  0.10006E-01
  0.45777E-02
  0.51878E-02
  0.51332E-02
  0.60701E-02
  0.59714E-02
  0.67454E-02
  0.63831E-02
 -0.21900E-01
  0.59995E-02
  0.66073E-02
  0.15007E-01
 -0.18441E-01
  0.73296E-02
  0.50710E-02
  0.53004E-02
  0.29169E-02
  0.14418E-01
  0.82230E-02
  0.86004E-02
  0.87582E-02
  0.89410E-02
  0.12843E-01
 -0.92137E-03
  0.12318E-01
  0.53073E-02
 -0.29673E-01
  0.15132E-01
  0.13788E-01
  0.15837E-01
  0.49828E-02
  0.53026E-02
  0.38077E-02
  0.45839E-02
  0.49780E-02
  0.48162E-02
  0.51752E-02
  0.47618E-02
  0.50409E-02
  0.55188E-02
  0.14034E-01
  0.18755E-01
  0.20331E-01
  0.17382E-01
  0.48310E-02
  0.76545E-02
  0.11343E-01
  0.12181E-01
  0.12827E-01
 -0.83439E-02
 -0.49768E-02
 -0.59395E-01
 -0.12682E-01
 -0.13770E-02
 -0.17855E-01
  0.14216E-01
  0.42064E-02
  0.45929E-02
  0.70569E-02
 -0.10214E-02
  0.75982E-02
  0.22022E-01
 -0.15221E-01
  0.14508E-01
 -0.36259E-02
  0.21544E-01
  0.21901E-01
  0.19775E-01
  0.20471E-01
  0.22300E-01
  0.20491E-01
  0.19036E-01
 -0.57488E-02
  0.99207E-02
  0.89544E-02
  0.47194E-02
  0.13654E-01
  0.64675E-02
  0.81862E-02
  0.98124E-02
  0.34451E-02
  0.10018E-02
  0.10273E-01
 -0.13735E-01
 -0.53546E-02
 -0.47372E-01
 -0.44258E-01
 -0.37399E-01
 -0.51549E-01
 -0.30136E-01
  0.41768E-02
  0.14128E-01
  0.13077E-01
  0.15801E-01
  0.16811E-01
  0.18332E-01
  0.17285E-01
 -0.16600E-01
  0.11598E-02
  0.10878E-01
  0.72167E-02
  0.47170E-02
  0.14339E-01
  0.21918E-01
  0.68993E-02
 -0.49946E-02
  0.15065E-01
  0.13877E-01
  0.15039E-01
  0.14628E-01
 -0.27014E-01
  0.49959E-02
  0.18961E-03
 -0.31718E-01
 -0.24912E-01
  0.15759E-01
  0.15611E-01
  0.15485E-01
  0.13643E-01
 -0.66254E-02
  0.27884E-02
  0.23935E-01
  0.24758E-01
  0.13722E-02
  0.17154E-01
  0.13094E-01
 -0.23840E-01
  0.36344E-02
  0.26143E-02
  0.12718E-02
 -0.50873E-03
  0.35569E-03
  0.30174E-02
  0.78839E-02
  0.87446E-02
  0.76837E-02
  0.91031E-02
  0.95311E-02
  0.14835E-01
  0.16468E-01
  0.18104E-01
  0.18005E-01
 -0.56575E-02
 -0.10160E-01
 -0.11975E-01
  0.48938E-02
  0.49070E-02
  0.46494E-02
  0.54421E-02
  0.15727E-01
  0.48251E-02
 -0.22372E-01
 -0.78229E-02
 -0.87812E-02
 -0.15321E-01
 -0.12573E-01
  0.13919E-01
  0.13554E-01
  0.13334E-01
  0.13460E-01
  0.13178E-01
  0.13405E-01
  0.16680E-01
 -0.12135E-02
  0.10569E-02
  0.15495E-01
  0.15476E-01
  0.81189E-02
  0.17573E-02
  0.33051E-02
  0.15680E-01
  0.10011E-01
  0.11346E-01
 -0.98422E-02
  0.22784E-02
 -0.83178E-02
 -0.15875E-01
  0.15922E-01
 -0.35384E-02
  0.56936E-02
  0.55472E-02
  0.61710E-02
  0.65777E-02
 -0.28371E-02
  0.55967E-02
  0.14275E-01
  0.14291E-01
  0.18652E-02
  0.77383E-02
  0.17255E-01
 -0.65443E-02
  0.18699E-01
  0.20097E-01
 -0.14296E-01
  0.13912E-01
  0.14778E-01
  0.15015E-01
  0.15253E-01
  0.52331E-02
  0.16026E-01
  0.44797E-02
  0.13778E-01
  0.13065E-01
  0.12989E-01
 -0.15637E-01
 -0.20748E-01
  0.53587E-03
 -0.77588E-03
  0.23731E-02
  0.57040E-02
  0.61960E-02
 -0.49514E-03
  0.81539E-02
  0.93032E-02
  0.17587E-01
  0.67414E-02
  0.64702E-02
  0.11603E-01
  0.11282E-01
  0.12270E-01
  0.12523E-01
  0.13144E-01
  0.55747E-02
  0.91780E-02
  0.61958E-02
  0.62666E-02
  0.72796E-02
  0.46497E-02
  0.44715E-02
 -0.47069E-02
 -0.64432E-02
  0.77997E-02
  0.69599E-02
  0.83534E-02
  0.91587E-02
  0.96525E-02
  0.77878E-03
  0.11606E-01
  0.87901E-02
  0.13375E-01
  0.13488E-01
  0.19753E-01
 -0.93926E-02
  0.49514E-02
  0.46229E-02
  0.15907E-01
 -0.12483E-01
  0.54817E-02
  0.62865E-02
  0.67354E-02
  0.64561E-02
  0.65317E-02
  0.59758E-02
  0.59273E-02
  0.57954E-02
 -0.62410E-01
 -0.36631E-02
  0.59110E-02
  0.15931E-01
  0.15615E-01
  0.16106E-01
  0.88036E-02
  0.54581E-02
  0.42867E-02
  0.15841E-01
  0.13776E-01
  0.89386E-02
  0.89939E-02
  0.83715E-02
 -0.30751E-02
 -0.55787E-02
 -0.78565E-02
 -0.42203E-02
  0.18803E-01
 -0.84902E-02
 -0.88718E-02
 -0.36617E-02
 -0.35426E-02
 -0.35850E-02
  0.45831E-02
  0.56997E-02
 -0.26928E-02
 -0.21032E-02
 -0.24805E-02
  0.73537E-02
  0.64760E-02
  0.75662E-02
  0.66601E-02
  0.14669E-01
  0.69989E-03
  0.71356E-02
  0.17627E-01
  0.44468E-02
  0.54723E-02
  0.15584E-02
 -0.76031E-03
 -0.12519E-02
 -0.12756E-02
 -0.19463E-02
  0.51491E-02
  0.48215E-02
  0.45451E-02
  0.31455E-02
  0.42232E-02
  0.57386E-02
  0.62064E-02
  0.79638E-02
  0.39013E-02
  0.32971E-02
 -0.23483E-01
  0.38769E-02
  0.39777E-02
  0.11641E-01
  0.72337E-02
 -0.15238E-02
 -0.22900E-03
  0.51806E-02
 -0.10709E-01
 -0.30611E-02
  0.48364E-02
  0.59956E-02
 -0.21113E-03
 -0.38966E-02
  0.39055E-03
  0.69279E-02
 -0.75312E-02
 -0.82671E-02
 -0.12377E-03
  0.43235E-02
 -0.26712E-02
  0.10141E-01
 -0.80968E-02
  0.51700E-02
 -0.47201E-02
 -0.75971E-02
 -0.40234E-02
  0.58910E-02
 -0.64601E-02
 -0.11829E-01
 -0.51699E-02
  0.74145E-02
 -0.40268E-03
 -0.70120E-02
 -0.24158E-01
  0.73623E-02
  0.75757E-02
  0.11710E-01
  0.28299E-02
  0.38119E-02
 -0.10477E-01
 -0.12763E-02
  0.52519E-02
  0.45625E-02
 -0.46928E-02
  0.15095E-02
  0.80084E-02
  0.58528E-02
 -0.13744E-02
 -0.24594E-01
 -0.22554E-01
  0.44218E-02
 -0.23712E-02
  0.55179E-02
  0.47295E-02
 -0.69282E-02
  0.30887E-02
 -0.45046E-02
 -0.16570E-01
  0.72409E-02
 -0.18707E-02
  0.15539E-01
  0.26385E-03
 -0.23912E-01
  0.12577E-01
 -0.37785E-02
  0.48838E-02
  0.45859E-02
  0.87839E-02
 -0.58851E-02
  0.50036E-02
  0.15940E-01
 -0.61405E-02
  0.19054E-01
  0.87949E-02
  0.24091E-01
  0.19216E-01
  0.80137E-02
  0.17610E-01
 -0.21143E-01
 -0.22917E-01
  0.97044E-02
  0.12666E-01
  0.78723E-02
  0.16999E-01
 -0.62850E-02
  0.67387E-02
 -0.36670E-01
 -0.45838E-01
 -0.10451E-01
  0.12703E-01
 -0.80298E-02
 -0.48671E-01
 -0.81983E-02
  0.16394E-02
  0.40206E-02
 -0.46228E-01
 -0.46623E-01