# vtk DataFile Version 2.0
Unstructured Grid UFVM-ECOMOD
ASCII
DATASET UNSTRUCTURED_GRID
 POINTS         1420  float
  0.00000E+00  0.00000E+00  0.00000E+00
  0.40000E+01  0.00000E+00  0.00000E+00
  0.40000E+01  0.20000E+01  0.00000E+00
  0.00000E+00  0.20000E+01  0.00000E+00
  0.10433E+01  0.10046E+01  0.00000E+00
  0.10392E+01  0.96756E+00  0.00000E+00
  0.10272E+01  0.93281E+00  0.00000E+00
  0.10079E+01  0.90258E+00  0.00000E+00
  0.98260E+00  0.87876E+00  0.00000E+00
  0.95293E+00  0.86285E+00  0.00000E+00
  0.92072E+00  0.85585E+00  0.00000E+00
  0.88798E+00  0.85820E+00  0.00000E+00
  0.85679E+00  0.86974E+00  0.00000E+00
  0.82910E+00  0.88977E+00  0.00000E+00
  0.80665E+00  0.91701E+00  0.00000E+00
  0.79085E+00  0.94975E+00  0.00000E+00
  0.78270E+00  0.98595E+00  0.00000E+00
  0.78270E+00  0.10233E+01  0.00000E+00
  0.79085E+00  0.10595E+01  0.00000E+00
  0.80665E+00  0.10922E+01  0.00000E+00
  0.82910E+00  0.11195E+01  0.00000E+00
  0.85679E+00  0.11395E+01  0.00000E+00
  0.88798E+00  0.11511E+01  0.00000E+00
  0.92072E+00  0.11534E+01  0.00000E+00
  0.95293E+00  0.11464E+01  0.00000E+00
  0.98260E+00  0.11305E+01  0.00000E+00
  0.10079E+01  0.11067E+01  0.00000E+00
  0.10272E+01  0.10764E+01  0.00000E+00
  0.10392E+01  0.10417E+01  0.00000E+00
  0.10000E+00  0.00000E+00  0.00000E+00
  0.20000E+00  0.00000E+00  0.00000E+00
  0.30000E+00  0.00000E+00  0.00000E+00
  0.40000E+00  0.00000E+00  0.00000E+00
  0.50000E+00  0.00000E+00  0.00000E+00
  0.60000E+00  0.00000E+00  0.00000E+00
  0.70000E+00  0.00000E+00  0.00000E+00
  0.80000E+00  0.00000E+00  0.00000E+00
  0.90000E+00  0.00000E+00  0.00000E+00
  0.10000E+01  0.00000E+00  0.00000E+00
  0.11000E+01  0.00000E+00  0.00000E+00
  0.12000E+01  0.00000E+00  0.00000E+00
  0.13000E+01  0.00000E+00  0.00000E+00
  0.14000E+01  0.00000E+00  0.00000E+00
  0.15000E+01  0.00000E+00  0.00000E+00
  0.16000E+01  0.00000E+00  0.00000E+00
  0.17000E+01  0.00000E+00  0.00000E+00
  0.18000E+01  0.00000E+00  0.00000E+00
  0.19000E+01  0.00000E+00  0.00000E+00
  0.20000E+01  0.00000E+00  0.00000E+00
  0.21000E+01  0.00000E+00  0.00000E+00
  0.22000E+01  0.00000E+00  0.00000E+00
  0.23000E+01  0.00000E+00  0.00000E+00
  0.24000E+01  0.00000E+00  0.00000E+00
  0.25000E+01  0.00000E+00  0.00000E+00
  0.26000E+01  0.00000E+00  0.00000E+00
  0.27000E+01  0.00000E+00  0.00000E+00
  0.28000E+01  0.00000E+00  0.00000E+00
  0.29000E+01  0.00000E+00  0.00000E+00
  0.30000E+01  0.00000E+00  0.00000E+00
  0.31000E+01  0.00000E+00  0.00000E+00
  0.32000E+01  0.00000E+00  0.00000E+00
  0.33000E+01  0.00000E+00  0.00000E+00
  0.34000E+01  0.00000E+00  0.00000E+00
  0.35000E+01  0.00000E+00  0.00000E+00
  0.36000E+01  0.00000E+00  0.00000E+00
  0.37000E+01  0.00000E+00  0.00000E+00
  0.38000E+01  0.00000E+00  0.00000E+00
  0.39000E+01  0.00000E+00  0.00000E+00
  0.40000E+01  0.10000E+00  0.00000E+00
  0.40000E+01  0.20000E+00  0.00000E+00
  0.40000E+01  0.30000E+00  0.00000E+00
  0.40000E+01  0.40000E+00  0.00000E+00
  0.40000E+01  0.50000E+00  0.00000E+00
  0.40000E+01  0.60000E+00  0.00000E+00
  0.40000E+01  0.70000E+00  0.00000E+00
  0.40000E+01  0.80000E+00  0.00000E+00
  0.40000E+01  0.90000E+00  0.00000E+00
  0.40000E+01  0.10000E+01  0.00000E+00
  0.40000E+01  0.11000E+01  0.00000E+00
  0.40000E+01  0.12000E+01  0.00000E+00
  0.40000E+01  0.13000E+01  0.00000E+00
  0.40000E+01  0.14000E+01  0.00000E+00
  0.40000E+01  0.15000E+01  0.00000E+00
  0.40000E+01  0.16000E+01  0.00000E+00
  0.40000E+01  0.17000E+01  0.00000E+00
  0.40000E+01  0.18000E+01  0.00000E+00
  0.40000E+01  0.19000E+01  0.00000E+00
  0.39000E+01  0.20000E+01  0.00000E+00
  0.38000E+01  0.20000E+01  0.00000E+00
  0.37000E+01  0.20000E+01  0.00000E+00
  0.36000E+01  0.20000E+01  0.00000E+00
  0.35000E+01  0.20000E+01  0.00000E+00
  0.34000E+01  0.20000E+01  0.00000E+00
  0.33000E+01  0.20000E+01  0.00000E+00
  0.32000E+01  0.20000E+01  0.00000E+00
  0.31000E+01  0.20000E+01  0.00000E+00
  0.30000E+01  0.20000E+01  0.00000E+00
  0.29000E+01  0.20000E+01  0.00000E+00
  0.28000E+01  0.20000E+01  0.00000E+00
  0.27000E+01  0.20000E+01  0.00000E+00
  0.26000E+01  0.20000E+01  0.00000E+00
  0.25000E+01  0.20000E+01  0.00000E+00
  0.24000E+01  0.20000E+01  0.00000E+00
  0.23000E+01  0.20000E+01  0.00000E+00
  0.22000E+01  0.20000E+01  0.00000E+00
  0.21000E+01  0.20000E+01  0.00000E+00
  0.20000E+01  0.20000E+01  0.00000E+00
  0.19000E+01  0.20000E+01  0.00000E+00
  0.18000E+01  0.20000E+01  0.00000E+00
  0.17000E+01  0.20000E+01  0.00000E+00
  0.16000E+01  0.20000E+01  0.00000E+00
  0.15000E+01  0.20000E+01  0.00000E+00
  0.14000E+01  0.20000E+01  0.00000E+00
  0.13000E+01  0.20000E+01  0.00000E+00
  0.12000E+01  0.20000E+01  0.00000E+00
  0.11000E+01  0.20000E+01  0.00000E+00
  0.10000E+01  0.20000E+01  0.00000E+00
  0.90000E+00  0.20000E+01  0.00000E+00
  0.80000E+00  0.20000E+01  0.00000E+00
  0.70000E+00  0.20000E+01  0.00000E+00
  0.60000E+00  0.20000E+01  0.00000E+00
  0.50000E+00  0.20000E+01  0.00000E+00
  0.40000E+00  0.20000E+01  0.00000E+00
  0.30000E+00  0.20000E+01  0.00000E+00
  0.20000E+00  0.20000E+01  0.00000E+00
  0.10000E+00  0.20000E+01  0.00000E+00
  0.00000E+00  0.19000E+01  0.00000E+00
  0.00000E+00  0.18000E+01  0.00000E+00
  0.00000E+00  0.17000E+01  0.00000E+00
  0.00000E+00  0.16000E+01  0.00000E+00
  0.00000E+00  0.15000E+01  0.00000E+00
  0.00000E+00  0.14000E+01  0.00000E+00
  0.00000E+00  0.13000E+01  0.00000E+00
  0.00000E+00  0.12000E+01  0.00000E+00
  0.00000E+00  0.11000E+01  0.00000E+00
  0.00000E+00  0.10000E+01  0.00000E+00
  0.00000E+00  0.90000E+00  0.00000E+00
  0.00000E+00  0.80000E+00  0.00000E+00
  0.00000E+00  0.70000E+00  0.00000E+00
  0.00000E+00  0.60000E+00  0.00000E+00
  0.00000E+00  0.50000E+00  0.00000E+00
  0.00000E+00  0.40000E+00  0.00000E+00
  0.00000E+00  0.30000E+00  0.00000E+00
  0.00000E+00  0.20000E+00  0.00000E+00
  0.00000E+00  0.10000E+00  0.00000E+00
  0.19476E+01  0.85910E-01  0.00000E+00
  0.19458E+01  0.19136E+01  0.00000E+00
  0.29500E+01  0.19134E+01  0.00000E+00
  0.24474E+01  0.19097E+01  0.00000E+00
  0.27468E+01  0.83590E-01  0.00000E+00
  0.23486E+01  0.86060E-01  0.00000E+00
  0.39202E+01  0.95555E+00  0.00000E+00
  0.31524E+01  0.79860E-01  0.00000E+00
  0.15434E+01  0.81060E-01  0.00000E+00
  0.15561E+01  0.19190E+01  0.00000E+00
  0.33401E+01  0.19193E+01  0.00000E+00
  0.55000E+00  0.86600E-01  0.00000E+00
  0.54321E+00  0.18970E+01  0.00000E+00
  0.12576E+01  0.94170E-01  0.00000E+00
  0.12595E+01  0.19031E+01  0.00000E+00
  0.85260E-01  0.64891E+00  0.00000E+00
  0.39224E+01  0.13485E+01  0.00000E+00
  0.97850E-01  0.13456E+01  0.00000E+00
  0.85263E+00  0.92690E-01  0.00000E+00
  0.90232E+00  0.82868E+00  0.00000E+00
  0.39134E+01  0.55000E+00  0.00000E+00
  0.85000E+00  0.19134E+01  0.00000E+00
  0.90219E+00  0.11796E+01  0.00000E+00
  0.73730E-01  0.95061E+00  0.00000E+00
  0.34521E+01  0.83790E-01  0.00000E+00
  0.36500E+01  0.19134E+01  0.00000E+00
  0.86600E-01  0.16500E+01  0.00000E+00
  0.91260E-01  0.35125E+00  0.00000E+00
  0.39122E+01  0.16529E+01  0.00000E+00
  0.79770E-01  0.11522E+01  0.00000E+00
  0.10500E+01  0.19134E+01  0.00000E+00
  0.10436E+01  0.96320E-01  0.00000E+00
  0.34641E+00  0.19165E+01  0.00000E+00
  0.35117E+00  0.98680E-01  0.00000E+00
  0.17489E+01  0.19152E+01  0.00000E+00
  0.17477E+01  0.85050E-01  0.00000E+00
  0.21486E+01  0.19136E+01  0.00000E+00
  0.21494E+01  0.85650E-01  0.00000E+00
  0.25494E+01  0.86540E-01  0.00000E+00
  0.39145E+01  0.11516E+01  0.00000E+00
  0.36500E+01  0.85140E-01  0.00000E+00
  0.29463E+01  0.83430E-01  0.00000E+00
  0.31423E+01  0.19179E+01  0.00000E+00
  0.27493E+01  0.19098E+01  0.00000E+00
  0.39010E+01  0.34178E+00  0.00000E+00
  0.39152E+01  0.74696E+00  0.00000E+00
  0.90200E-01  0.18440E+01  0.00000E+00
  0.38461E+01  0.84370E-01  0.00000E+00
  0.93600E-01  0.14922E+00  0.00000E+00
  0.38527E+01  0.19149E+01  0.00000E+00
  0.93499E+00  0.11827E+01  0.00000E+00
  0.91733E+00  0.12123E+01  0.00000E+00
  0.95207E+00  0.12164E+01  0.00000E+00
  0.93165E+00  0.12471E+01  0.00000E+00
  0.97084E+00  0.12505E+01  0.00000E+00
  0.89437E+00  0.12359E+01  0.00000E+00
  0.94819E+00  0.12843E+01  0.00000E+00
  0.99065E+00  0.12884E+01  0.00000E+00
  0.96461E+00  0.13251E+01  0.00000E+00
  0.10110E+01  0.13286E+01  0.00000E+00
  0.10361E+01  0.12902E+01  0.00000E+00
  0.10582E+01  0.13315E+01  0.00000E+00
  0.10845E+01  0.12921E+01  0.00000E+00
  0.11074E+01  0.13353E+01  0.00000E+00
  0.11351E+01  0.12931E+01  0.00000E+00
  0.11593E+01  0.13388E+01  0.00000E+00
  0.11880E+01  0.12934E+01  0.00000E+00
  0.12152E+01  0.13430E+01  0.00000E+00
  0.12465E+01  0.12932E+01  0.00000E+00
  0.12751E+01  0.13479E+01  0.00000E+00
  0.13089E+01  0.12933E+01  0.00000E+00
  0.13392E+01  0.13518E+01  0.00000E+00
  0.13744E+01  0.12961E+01  0.00000E+00
  0.13422E+01  0.12370E+01  0.00000E+00
  0.14103E+01  0.12382E+01  0.00000E+00
  0.13774E+01  0.11782E+01  0.00000E+00
  0.14470E+01  0.11795E+01  0.00000E+00
  0.14109E+01  0.11172E+01  0.00000E+00
  0.14840E+01  0.11192E+01  0.00000E+00
  0.14492E+01  0.10568E+01  0.00000E+00
  0.15224E+01  0.10578E+01  0.00000E+00
  0.15578E+01  0.11226E+01  0.00000E+00
  0.15980E+01  0.10587E+01  0.00000E+00
  0.16344E+01  0.11264E+01  0.00000E+00
  0.16757E+01  0.10600E+01  0.00000E+00
  0.17140E+01  0.11301E+01  0.00000E+00
  0.17569E+01  0.10614E+01  0.00000E+00
  0.17947E+01  0.11329E+01  0.00000E+00
  0.18396E+01  0.10629E+01  0.00000E+00
  0.18817E+01  0.11349E+01  0.00000E+00
  0.19258E+01  0.10641E+01  0.00000E+00
  0.14867E+01  0.99385E+00  0.00000E+00
  0.19700E+01  0.11392E+01  0.00000E+00
  0.20134E+01  0.10659E+01  0.00000E+00
  0.20560E+01  0.11394E+01  0.00000E+00
  0.21025E+01  0.10675E+01  0.00000E+00
  0.21507E+01  0.11553E+01  0.00000E+00
  0.21942E+01  0.10716E+01  0.00000E+00
  0.22424E+01  0.11506E+01  0.00000E+00
  0.22867E+01  0.10733E+01  0.00000E+00
  0.17993E+01  0.99189E+00  0.00000E+00
  0.20571E+01  0.99091E+00  0.00000E+00
[...]
 POINT_DATA         1420
  
 SCALARS WL      float 1
 LOOKUP_TABLE default
  0.88807E-02
 -0.10882E-03
  0.36990E-02
  0.50149E-02
 -0.30051E-01
 -0.25642E-01
 -0.22073E-01
 -0.20208E-01
 -0.19427E-01
 -0.21957E-01
 -0.31773E-01
 -0.34910E-01
 -0.21564E-01
 -0.48424E-02
  0.12317E-01
  0.23200E-01
  0.28436E-01
  0.28625E-01
  0.22862E-01
  0.11255E-01
 -0.49272E-02
 -0.26032E-01
 -0.50121E-01
 -0.62429E-01
 -0.52206E-01
 -0.43693E-01
 -0.40944E-01
 -0.39082E-01
 -0.35377E-01
  0.85720E-02
  0.78371E-02
  0.67454E-02
  0.53526E-02
  0.37303E-02
  0.18753E-02
 -0.10062E-03
 -0.18865E-02
 -0.35066E-02
 -0.46389E-02
 -0.50737E-02
 -0.48042E-02
 -0.40088E-02
 -0.30108E-02
 -0.19789E-02
 -0.10589E-02
 -0.24847E-03
  0.52254E-03
  0.12330E-02
  0.17867E-02
  0.21767E-02
  0.24825E-02
  0.28118E-02
  0.32998E-02
  0.40100E-02
  0.48565E-02
  0.56263E-02
  0.60313E-02
  0.59198E-02
  0.53323E-02
  0.44435E-02
  0.34865E-02
  0.26208E-02
  0.19308E-02
  0.14192E-02
  0.10425E-02
  0.67601E-03
  0.29883E-03
 -0.18734E-05
  0.00000E+00
  0.00000E+00
  0.00000E+00
  0.00000E+00
  0.00000E+00
  0.00000E+00
  0.00000E+00
  0.00000E+00
  0.00000E+00
  0.00000E+00
  0.00000E+00
  0.00000E+00
  0.00000E+00
  0.00000E+00
  0.00000E+00
  0.00000E+00
  0.00000E+00
  0.00000E+00
  0.00000E+00
  0.55219E-02
  0.79847E-02
  0.94249E-02
  0.96215E-02
  0.86291E-02
  0.69705E-02
  0.52589E-02
  0.39313E-02
  0.31506E-02
  0.28303E-02
  0.28067E-02
  0.29328E-02
  0.30894E-02
  0.32098E-02
  0.32878E-02
  0.33072E-02
  0.32746E-02
  0.31891E-02
  0.30443E-02
  0.28197E-02
  0.25034E-02
  0.20573E-02
  0.15445E-02
  0.99748E-03
  0.48414E-03
  0.15668E-03
  0.12676E-03
  0.49552E-03
  0.12620E-02
  0.21987E-02
  0.32214E-02
  0.40524E-02
  0.46540E-02
  0.50300E-02
  0.51186E-02
  0.51517E-02
  0.51178E-02
  0.50724E-02
  0.50270E-02
  0.51067E-02
  0.53892E-02
  0.58095E-02
  0.63998E-02
  0.70804E-02
  0.77968E-02
  0.85450E-02
  0.91754E-02
  0.96858E-02
  0.10037E-01
  0.10189E-01
  0.10172E-01
  0.10029E-01
  0.98171E-02
  0.95844E-02
  0.93590E-02
  0.91553E-02
  0.90236E-02
  0.89362E-02
  0.16061E-02
  0.26285E-02
  0.28309E-02
  0.33424E-02
  0.58656E-02
  0.30290E-02
 -0.22473E-02
  0.39852E-02
 -0.15874E-02
  0.74381E-03
  0.60225E-02
  0.29494E-02
  0.51532E-02
 -0.44114E-02
  0.44915E-04
  0.98526E-02
  0.14815E-02
  0.82813E-02
 -0.27798E-02
 -0.28826E-01
 -0.97618E-03
  0.35495E-02
 -0.47725E-01
  0.10173E-01
  0.17133E-02
  0.95889E-02
  0.60886E-02
  0.90261E-02
  0.47250E-02
  0.95134E-02
  0.15148E-02
 -0.49579E-02
  0.52197E-02
  0.61370E-02
  0.17924E-02
  0.18012E-03
  0.31201E-02
  0.23879E-02
  0.44034E-02
 -0.85215E-03
  0.89453E-03
  0.57130E-02
  0.34520E-02
  0.30761E-02
 -0.10811E-03
 -0.19787E-02
  0.52575E-02
  0.13255E-03
  0.87009E-02
  0.66888E-02
 -0.50606E-01
 -0.35277E-01
 -0.36278E-01
 -0.26942E-01
 -0.28318E-01
 -0.23489E-01
 -0.21186E-01
 -0.22437E-01
 -0.16850E-01
 -0.17716E-01
 -0.22058E-01
 -0.17181E-01
 -0.20121E-01
 -0.15228E-01
 -0.16673E-01
 -0.12190E-01
 -0.12441E-01
 -0.83919E-02
 -0.69995E-02
 -0.41556E-02
 -0.15216E-02
 -0.38192E-03
  0.22622E-02
  0.12927E-02
  0.37560E-02
 -0.23562E-02
 -0.26352E-02
 -0.13460E-01
 -0.12208E-01
 -0.23263E-01
 -0.18064E-01
 -0.11230E-01
 -0.15263E-01
 -0.12889E-01
 -0.15977E-01
 -0.16889E-01
 -0.19083E-01
 -0.20573E-01
 -0.20572E-01
 -0.18660E-01
 -0.17035E-01
 -0.25479E-01
 -0.12419E-01
 -0.11337E-01
 -0.72321E-02
 -0.71972E-02
 -0.33510E-02
 -0.53346E-02
 -0.24381E-02
 -0.53017E-02
 -0.16966E-01
 -0.93507E-02
 -0.21484E-02
 -0.58036E-02
 -0.20981E-02
 -0.54839E-02
 -0.16182E-02
 -0.39260E-02
 -0.90407E-03
 -0.24936E-02
 -0.80530E-03
 -0.20498E-02
 -0.15356E-02
 -0.26697E-02
 -0.30484E-02
 -0.40952E-02
 -0.47391E-02
 -0.97545E-02
 -0.21629E-02
 -0.51077E-02
  0.19066E-02
 -0.50218E-02
 -0.13373E-01
 -0.11464E-01
 -0.11414E-01
 -0.41775E-02
 -0.34898E-02
 -0.16830E-01
 -0.92989E-02
 -0.69654E-02
 -0.28849E-02
 -0.18869E-02
 -0.69388E-03
 -0.58589E-02
  0.20630E-03
 -0.38442E-01
  0.59258E-03
  0.18726E-02
  0.12873E-02
 -0.57741E-02
 -0.34285E-02
 -0.10067E-02
 -0.34120E-01
 -0.19332E-01
 -0.30690E-01
 -0.23695E-01
 -0.24101E-02
 -0.29838E-02
 -0.20870E-03
  0.23229E-02
  0.34237E-02
  0.32711E-02
  0.14076E-02
 -0.39330E-01
 -0.31536E-01
 -0.38215E-01
 -0.28165E-01
 -0.20442E-01
 -0.17296E-01
 -0.11813E-01
 -0.21425E-01
 -0.13712E-01
 -0.15541E-01
 -0.10868E-01
 -0.11851E-01
  0.31135E-02
  0.39719E-02
 -0.89006E-02
 -0.94630E-02
 -0.76436E-02
 -0.28295E-02
 -0.75234E-03
 -0.68858E-03
  0.14793E-02
  0.21390E-02
  0.35748E-02
  0.46276E-02
  0.52524E-02
  0.65008E-02
  0.65946E-02
  0.77978E-02
 -0.46142E-02
  0.81357E-02
  0.91797E-02
  0.61075E-02
  0.10089E-01
  0.10492E-01
  0.11761E-01
  0.11619E-01
  0.13130E-01
  0.75024E-02
  0.12394E-01
  0.13891E-01
  0.16372E-04
  0.26546E-02
  0.29207E-02
  0.26172E-01
 -0.11851E-01
 -0.95093E-02
 -0.11323E-01
 -0.92459E-02
 -0.80149E-02
 -0.76967E-02
 -0.85754E-02
 -0.69677E-02
 -0.86405E-02
 -0.74903E-02
 -0.56341E-02
 -0.54790E-02
 -0.36809E-02
 -0.28367E-02
 -0.13223E-02
 -0.32390E-05
  0.10039E-02
  0.27395E-02
  0.18509E-01
  0.30757E-02
  0.50303E-02
  0.48169E-02
  0.66848E-02
  0.62270E-02
  0.78119E-02
  0.86140E-02
  0.92249E-02
  0.16291E-02
  0.10268E-01
  0.31646E-02
  0.10433E-01
 -0.38648E-01
 -0.57035E-02
  0.38404E-02
 -0.14071E-01
 -0.65730E-02
 -0.53421E-02
  0.12750E-01
  0.73479E-02
  0.24765E-02
  0.46332E-02
  0.38524E-02
  0.50627E-02
 -0.20269E-02
 -0.33827E-02
  0.28119E-02
  0.80267E-03
  0.59915E-02
  0.65288E-02
  0.71508E-02
 -0.80569E-02
  0.54395E-02
  0.27972E-02
  0.10503E-01
 -0.95317E-02
  0.33048E-02
  0.14022E-01
  0.12688E-01
 -0.18313E-01
 -0.49233E-02
 -0.37787E-02
 -0.37844E-02
 -0.23926E-02
 -0.20007E-02
 -0.94792E-03
 -0.21477E-03
  0.39769E-03
  0.12416E-02
  0.17097E-02
  0.24819E-02
  0.18957E-02
  0.29186E-02
  0.32364E-02
  0.32861E-02
  0.34342E-02
  0.26654E-02
  0.27276E-02
  0.74861E-03
  0.13583E-02
 -0.18383E-02
  0.34922E-04
 -0.36903E-02
 -0.18798E-03
 -0.31205E-02
  0.97375E-03
 -0.57971E-03
  0.26211E-02
  0.18813E-02
  0.39709E-02
  0.35034E-02
  0.48816E-02
 -0.69242E-02
  0.44761E-02
  0.41370E-02
  0.47204E-02
  0.20646E-02
 -0.50344E-02
  0.62742E-02
 -0.77143E-02
  0.67149E-02
 -0.16090E-02
 -0.41280E-01
  0.71518E-02
  0.82251E-02
  0.74472E-02
  0.30280E-02
  0.21400E-02
 -0.11433E-02
 -0.21715E-02
  0.59974E-02
 -0.13057E-01
  0.11282E-01
  0.15570E-01
  0.15207E-01
  0.63903E-02
  0.67427E-02
  0.74353E-02
  0.38276E-02
  0.30239E-02
  0.17974E-02
  0.11628E-01
 -0.23322E-02
  0.17286E-01
  0.44633E-02
 -0.37824E-02
 -0.47144E-02
 -0.13724E-03
  0.41990E-02
  0.35222E-02
  0.48583E-02
 -0.65462E-02
  0.11180E-02
 -0.58136E-02
  0.30873E-02
  0.16060E-01
 -0.72075E-02
  0.76920E-02
  0.20619E-02
  0.21215E-02
  0.14146E-01
 -0.42241E-02
 -0.27172E-02
 -0.43067E-02
 -0.27269E-02
  0.17721E-01
  0.42098E-02
  0.70800E-02
  0.83079E-02
 -0.80974E-02
  0.61562E-02
  0.57722E-02
  0.62976E-02
  0.73938E-02
 -0.14024E-02
  0.25151E-02
  0.16115E-02
  0.75529E-03
 -0.34562E-03
  0.74410E-03
  0.18454E-01
  0.16220E-01
  0.31929E-02
  0.26207E-02
  0.16615E-02
  0.27237E-02
  0.23141E-02
  0.32081E-02
  0.32120E-02
  0.37743E-02
  0.39198E-02
  0.41123E-02
  0.42532E-02
  0.41555E-02
  0.42121E-02
  0.40051E-02
  0.39413E-02
  0.37093E-02
  0.34822E-02
  0.33021E-02
  0.27986E-02
  0.27919E-02
  0.20519E-02
  0.22307E-02
  0.12312E-02
  0.16082E-02
  0.40526E-03
  0.10635E-02
 -0.27970E-03
  0.69917E-03
 -0.49515E-03
  0.52879E-03
 -0.16705E-03
  0.57207E-03
  0.87085E-03
  0.66949E-03
  0.34747E-02
  0.14982E-02
 -0.18016E-03
 -0.80855E-03
 -0.11005E-02
  0.83972E-02
  0.71822E-02
 -0.82709E-02
  0.54522E-03
  0.25916E-03
  0.53717E-02
  0.56328E-02
  0.46451E-02
  0.48391E-02
  0.32512E-02
  0.39363E-02
  0.34676E-02
  0.28098E-02
  0.49386E-02
  0.38026E-02
 -0.36413E-02
 -0.22188E-02
  0.28693E-02
  0.23378E-02
 -0.27132E-01
 -0.39526E-02
 -0.38390E-02
 -0.45569E-02
 -0.24721E-02
 -0.15234E-02
 -0.18721E-02
 -0.10649E-01
 -0.55032E-02
 -0.28891E-02
  0.81865E-02
  0.67750E-02
  0.18380E-01
  0.15215E-01
  0.21741E-01
  0.57303E-02
 -0.22076E-01
 -0.69457E-02
 -0.62360E-02
 -0.23623E-02
 -0.94538E-03
  0.49900E-03
 -0.82134E-04
 -0.13081E-01
 -0.16109E-01
 -0.14743E-01
 -0.16622E-01
 -0.20723E-01
 -0.19100E-01
 -0.25800E-01
 -0.24564E-01
 -0.32021E-01
 -0.30679E-01
  0.59173E-02
  0.56363E-02
  0.16596E-01
  0.13029E-01
  0.11983E-01
  0.31400E-02
  0.18523E-02
 -0.19685E-02
 -0.47460E-02
  0.14733E-03
  0.31977E-02
 -0.15733E-01
 -0.13894E-01
 -0.16350E-01
 -0.13881E-01
 -0.69285E-02
  0.12298E-02
  0.22542E-02
 -0.36507E-01
 -0.34830E-01
 -0.27737E-02
 -0.25729E-02
  0.95643E-02
  0.67710E-02
 -0.14989E-01
  0.56893E-02
  0.53520E-02
  0.51109E-02
  0.47907E-02
  0.39086E-02
 -0.31286E-02
  0.10404E-01
 -0.30319E-01
 -0.33924E-01
 -0.35907E-01
 -0.32356E-01
 -0.30391E-01
 -0.25123E-01
 -0.31977E-01
  0.14017E-01
  0.29915E-02
  0.42184E-02
  0.48563E-02
  0.27366E-02
  0.21247E-02
  0.18440E-02
  0.14485E-02
  0.93410E-03
  0.11788E-02
  0.57396E-02
 -0.35233E-01
  0.65654E-03
  0.16133E-03
  0.12304E-04
  0.39603E-02
  0.15151E-02
  0.36885E-02
  0.20570E-02
  0.51639E-02
  0.14330E-02
  0.34172E-03
 -0.35824E-03
 -0.13410E-02
 -0.22231E-02
 -0.29764E-02
 -0.38419E-02
 -0.43543E-02
  0.66593E-03
 -0.46287E-03
 -0.13174E-02
 -0.33039E-02
 -0.63541E-02
 -0.45228E-02
 -0.32180E-01
  0.66445E-03
 -0.12684E-02
  0.42294E-02
  0.27550E-02
  0.20381E-02
 -0.23570E-01
 -0.31870E-01
 -0.60553E-02
 -0.57210E-02
  0.76216E-03
 -0.10657E-03
 -0.18541E-01
  0.23933E-03
 -0.27038E-03
 -0.66550E-02
  0.77695E-02
  0.62801E-02
  0.54293E-02
  0.88221E-02
  0.95432E-02
  0.10382E-01
  0.96616E-02
  0.10269E-01
  0.10947E-01
  0.10586E-01
  0.11158E-01
  0.10175E-01
 -0.16689E-01
 -0.13430E-01
  0.92365E-03
  0.16278E-02
  0.57693E-02
  0.75842E-03
 -0.20702E-01
  0.27384E-02
  0.33809E-02
  0.59911E-02
 -0.70706E-02
 -0.11146E-02
  0.32126E-03
  0.73806E-03
 -0.17899E-02
  0.56822E-02
 -0.11547E-01
 -0.10089E-01
 -0.11771E-01
 -0.66677E-02
 -0.99005E-03
 -0.51344E-02
  0.78645E-02
  0.10658E-01
  0.11052E-01
 -0.39854E-02
  0.47772E-02
  0.11662E-01
 -0.11133E-02
  0.12047E-01
 -0.19621E-02
  0.51934E-04
  0.18769E-02
 -0.13985E-02
 -0.12534E-02
 -0.21604E-01
 -0.68011E-02
 -0.29979E-01
 -0.17214E-02
 -0.31681E-02
 -0.18934E-01
 -0.61769E-02
  0.27561E-02
 -0.94595E-02
  0.31527E-02
  0.12345E-01
  0.88227E-02
  0.15771E-02
  0.13965E-01
  0.65601E-02
  0.99439E-03
  0.52478E-02
  0.11234E-02
 -0.43179E-02
  0.18084E-01
  0.17014E-01
  0.20820E-01
  0.13811E-01
  0.15386E-01
 -0.22468E-02
 -0.71444E-02
  0.16056E-02
  0.60694E-02
 -0.40199E-01
 -0.39469E-01
 -0.20425E-01
 -0.86597E-02
  0.39950E-02
  0.46098E-02
 -0.40173E-01
 -0.38061E-01
 -0.31163E-01
  0.15005E-01
  0.19728E-01
  0.21256E-02
 -0.27038E-01
  0.28230E-01
 -0.34676E-01
  0.75754E-02
  0.88652E-02
  0.58873E-02
 -0.38913E-02
  0.88119E-02
  0.77826E-02
  0.25097E-01
 -0.42614E-01
 -0.17427E-02
 -0.66543E-02
 -0.21973E-02
 -0.18074E-02
 -0.12709E-02
 -0.17600E-01
 -0.23262E-03
 -0.32643E-02
  0.45193E-02
  0.23393E-02
 -0.22993E-01
  0.89428E-02
  0.46538E-02
  0.34726E-02
  0.41162E-02
 -0.20486E-01
  0.54363E-02
  0.50272E-02
  0.52281E-02
  0.43387E-02
  0.34902E-02
  0.30658E-02
  0.10516E-01
  0.10705E-01
  0.10219E-01
  0.10187E-01
  0.10915E-01
  0.10074E-01
 -0.57736E-02
  0.50110E-02
  0.24696E-01
  0.55842E-02
  0.64738E-02
  0.70584E-02
  0.76025E-02
  0.79488E-02
 -0.36251E-02
 -0.47181E-02
 -0.38683E-01
 -0.34372E-01
 -0.35200E-01
 -0.29312E-01
  0.30454E-02
  0.39233E-02
  0.95137E-02
  0.92985E-02
  0.98669E-02
  0.89680E-02
  0.93953E-02
  0.85291E-02
  0.81575E-02
  0.88697E-02
 -0.23829E-02
 -0.34565E-02
 -0.10913E-01
  0.76420E-02
  0.73744E-02
  0.68643E-02
  0.65978E-02
  0.62850E-02
  0.71602E-02
  0.83034E-02
  0.20151E-01
 -0.79335E-02
 -0.89845E-02
 -0.23428E-03
  0.53353E-02
  0.55740E-02
 -0.12862E-02
 -0.26774E-01
 -0.16150E-01
 -0.17826E-01
  0.15123E-01
  0.50889E-03
  0.21458E-02
  0.18360E-01
 -0.15814E-01
  0.97858E-02
 -0.42145E-01
 -0.17002E-01
 -0.41869E-02
 -0.52049E-02
 -0.50782E-02
 -0.50661E-02
 -0.16249E-01
 -0.44160E-02
 -0.11744E-01
  0.72806E-02
 -0.24946E-01
  0.73015E-02
 -0.20559E-02
 -0.91295E-03
  0.25442E-02
 -0.29588E-01
 -0.27428E-01
  0.51744E-02
 -0.24144E-01
 -0.16416E-01
 -0.52312E-02
 -0.31219E-01
  0.56937E-02
 -0.82361E-03
 -0.61527E-02
 -0.10840E-01
 -0.11007E-02
 -0.52970E-02
  0.94206E-03
 -0.53687E-03
 -0.18558E-01
  0.13810E-01
 -0.21695E-01
 -0.31835E-02
  0.89564E-02
  0.43667E-02
  0.62729E-03
 -0.11642E-03
  0.37371E-03
 -0.62294E-02
  0.45139E-02
 -0.50503E-02
  0.40948E-02
  0.37095E-03
 -0.38372E-01
  0.84442E-02
  0.82301E-02
  0.11889E-01
  0.11498E-01
  0.11830E-01
 -0.40288E-01
  0.12839E-02
  0.15063E-02
  0.19732E-02
  0.15799E-02
  0.19515E-02
  0.11759E-02
  0.23220E-02
  0.23743E-02
 -0.66635E-03
 -0.32784E-03
  0.70032E-03
  0.50488E-03
  0.13712E-02
  0.15149E-02
  0.20161E-02
  0.21515E-02
  0.26777E-02
  0.25374E-02
 -0.63257E-02
  0.89264E-03
  0.28005E-02
 -0.55794E-02
 -0.60893E-02
 -0.83809E-02
 -0.87725E-02
 -0.20076E-01
 -0.20705E-02
 -0.59752E-02
 -0.42962E-02
 -0.82067E-02
 -0.80407E-02
  0.25334E-01
  0.46674E-02
  0.27257E-02
  0.52401E-02
  0.77523E-02
 -0.88583E-02
  0.19340E-02
  0.12954E-01
  0.10221E-01
  0.10078E-01
  0.95903E-02
  0.95138E-02
  0.91585E-02
  0.90137E-02
  0.94984E-02
 -0.68232E-03
  0.85681E-02
  0.12103E-02
  0.95231E-03
 -0.11767E-02
 -0.79009E-02
 -0.11913E-01
 -0.11438E-01
 -0.13851E-01
 -0.12583E-01
  0.20562E-02
  0.24029E-02
  0.25861E-02
  0.26770E-02
  0.26638E-02
  0.28186E-02
  0.28709E-02
  0.93318E-02
  0.59593E-02
  0.29232E-02
  0.29998E-02
  0.31903E-02
  0.30668E-02
  0.27806E-02
  0.27108E-02
  0.32465E-02
  0.33284E-02
  0.33180E-02
  0.34220E-02
  0.34759E-02
  0.36216E-02
  0.33161E-02
  0.34602E-02
  0.35889E-02
  0.42144E-02
 -0.35529E-01
 -0.39305E-03
 -0.42400E-02
 -0.18209E-02
 -0.66835E-02
 -0.10370E-01
  0.79706E-03
 -0.21094E-04
  0.11874E-02
 -0.91554E-03
  0.28275E-02
  0.34834E-02
  0.28484E-02
  0.30762E-02
 -0.11298E-01
 -0.11326E-01
 -0.70140E-02
 -0.63089E-02
 -0.84821E-02
 -0.23994E-02
 -0.22948E-02
  0.16330E-02
  0.95333E-03
 -0.21014E-01
  0.36138E-02
  0.39052E-02
  0.47548E-02
  0.41372E-02
  0.33304E-02
  0.51856E-03
 -0.20461E-02
  0.51613E-02
  0.53818E-02
  0.53248E-02
  0.57576E-02
  0.56542E-02
  0.57492E-02
  0.73762E-02
 -0.31279E-02
  0.10335E-02
  0.29639E-02
  0.11331E-02
  0.32327E-02
  0.33458E-02
  0.31884E-02
  0.35034E-02
 -0.52370E-02
  0.52406E-02
 -0.57464E-03
 -0.80779E-02
  0.20564E-02
 -0.38767E-02
  0.32426E-02
  0.18671E-02
  0.12404E-02
  0.28598E-02
 -0.39768E-02
  0.19548E-04
 -0.16377E-02
 -0.17803E-02
  0.29198E-02
  0.29835E-02
  0.14389E-02
  0.11384E-01
  0.12773E-01
 -0.18647E-02
  0.23525E-02
  0.26478E-02
  0.18611E-03
  0.59078E-03
  0.21383E-02
  0.72244E-03
  0.46659E-02
  0.42949E-02
  0.22449E-02
  0.27838E-03
 -0.30408E-03
 -0.16081E-02
  0.51353E-03
  0.35527E-03
 -0.30099E-04
  0.24863E-03
  0.73742E-03
  0.87012E-02
  0.94025E-02
  0.12747E-02
  0.16634E-02
  0.60519E-02
  0.49736E-02
  0.49682E-02
 -0.27031E-02
 -0.15728E-02
 -0.57611E-03
  0.37951E-04
  0.44463E-02
  0.29440E-02
  0.31233E-02
  0.15136E-02
  0.15572E-03
  0.59553E-02
  0.62784E-02
  0.26527E-02
  0.31524E-02
 -0.39018E-02
 -0.23669E-02
 -0.96754E-02
  0.89701E-02
  0.14581E-03
  0.23199E-02
  0.33499E-02
  0.51170E-02
 -0.26898E-02
  0.48930E-02
  0.36839E-03
  0.18771E-02
  0.20311E-02
  0.29977E-02
 -0.15889E-02
  0.51463E-02
  0.58077E-02
  0.54548E-02
 -0.39272E-02
 -0.25661E-03
 -0.27804E-02
  0.17767E-02
  0.16437E-02
  0.50902E-02
 -0.95092E-02
 -0.59418E-02
  0.40183E-02
  0.40059E-03
  0.41968E-02
  0.63917E-02
 -0.13021E-01
 -0.89446E-02
  0.27794E-02
  0.81492E-02
  0.15077E-02
  0.30843E-02
  0.17147E-02
  0.44248E-02
 -0.18175E-02
  0.18805E-02
  0.88811E-02
  0.11318E-02
 -0.11656E-01
  0.89726E-02
  0.52171E-02
 -0.14079E-01
  0.48882E-02
  0.10606E-03
  0.37240E-02
 -0.47531E-02
  0.44388E-02
 -0.52602E-02
  0.98927E-02
  0.11007E-02
  0.85285E-02
 -0.16266E-01
 -0.75884E-02
  0.78470E-03
 -0.10531E-01
 -0.15401E-01
 -0.10864E-02
  0.10823E-02
 -0.11522E-01
  0.33074E-02
  0.93935E-03
 -0.26495E-02
  0.74331E-03
 -0.18175E-01
 -0.38325E-02
  0.31899E-03
 -0.27893E-01
  0.78357E-02
 -0.10258E-01
 -0.55896E-02
  0.55252E-02
 -0.61440E-03
 -0.54401E-02
 -0.51117E-02
  0.79680E-02
  0.61744E-02
  0.25749E-02
  0.37348E-04
 -0.29263E-02
  0.72507E-02
 -0.11184E-02
 -0.16202E-02
 -0.90081E-02
  0.85541E-02
  0.82734E-02
  0.51185E-02
 -0.44359E-02
 -0.36674E-02
 -0.21721E-01
 -0.12092E-01
 -0.80590E-02
 -0.65444E-02
  0.10352E-01
 -0.60954E-03
 -0.20228E-04
  0.28153E-02
  0.48380E-02
  0.85454E-02
  0.95668E-02
  0.50779E-02
 -0.10655E-01
 -0.13996E-01
 -0.79740E-02
  0.46668E-03
  0.14414E-01
  0.47559E-03
 -0.15768E-01
  0.34858E-02
 -0.42542E-02
  0.23025E-01
 -0.23885E-03
  0.23388E-02
 -0.15520E-02
 -0.90792E-02
  0.11253E-01
  0.23073E-04
  0.48530E-02
 -0.13774E-02
  0.64512E-02
 -0.17686E-01
  0.11758E-01
  0.12774E-01
  0.18237E-01
  0.10799E-01
  0.27314E-02
 -0.13311E-01
  0.93302E-02
  0.76590E-03
 -0.87667E-02
  0.38160E-02
 -0.25913E-02
  0.10828E-01
  0.26831E-02
 -0.57170E-02
  0.91731E-02
 -0.75504E-02
  0.11938E-02
  0.10008E-02
  0.27971E-03
  0.37261E-02
 -0.13088E-03
 -0.35025E-02
 -0.12698E-01
  0.68870E-02
 -0.18229E-01
  0.41031E-02
 -0.77138E-03
  0.32952E-02
  0.27294E-02
  0.99566E-02
  0.21753E-02
  0.49434E-03
 -0.22601E-01
  0.26270E-02
 -0.13748E-01
 -0.45098E-03
  0.42908E-02
  0.24906E-02
  0.38892E-02
  0.32610E-02
 -0.20787E-02
 -0.13034E-01
  0.90373E-03
  0.10608E-02
 -0.76177E-02
 -0.54784E-03
  0.23008E-02
  0.50426E-02
 -0.14318E-01
  0.36990E-02
 -0.57813E-02
  0.88598E-02
 -0.17314E-01
  0.10350E-01
 -0.71677E-03
  0.30613E-02
  0.18169E-02
 -0.35253E-02
  0.51908E-02
 -0.25054E-03
  0.55118E-02
  0.21668E-02
 -0.32447E-01
  0.59630E-02
  0.31987E-02
  0.12983E-01
  0.10289E-01
  0.59585E-02
  0.76025E-02
  0.66200E-02
  0.54737E-02
  0.59066E-02
  0.88931E-02
  0.46302E-02
  0.55926E-02
 -0.62378E-03
 -0.37726E-01
 -0.21882E-02
 -0.54428E-02
 -0.66137E-02
  0.61088E-02
 -0.36265E-02
 -0.76630E-02
 -0.77507E-03
 -0.15607E-02
  0.20959E-01
  0.22628E-01
  0.81124E-02
  0.36431E-02
  0.20481E-01
  0.85429E-02
 -0.11710E-03
 -0.34686E-01
 -0.12223E-01
  0.87598E-03
 -0.48323E-02
  0.60684E-02
 -0.37464E-02
  0.15067E-02
 -0.31678E-02
 -0.38584E-02
  0.12746E-01
 -0.10432E-01
  0.31955E-02
  0.32246E-02
  0.78780E-02
 -0.31115E-01
  0.44393E-02
 -0.12173E-01
 -0.42904E-01
 -0.15452E-02
  0.29323E-02
  0.54104E-02
  0.89804E-02
  0.28761E-03
  0.12167E-02
 -0.39378E-02
 -0.12166E-01
 -0.37290E-01
  0.34980E-02
 -0.94582E-02
  0.30409E-02
  0.31501E-02
 -0.36757E-03
  0.66805E-02
 -0.26206E-01
  0.87603E-02
  0.50683E-02
 -0.30736E-01
 -0.53391E-04
  0.45752E-02
  0.29300E-03
 -0.10774E-01
 -0.35220E-02
  0.12987E-01
  0.38316E-02
 -0.38586E-01
  0.16199E-01
  0.99164E-02
  0.84351E-02
  0.14522E-01
  0.99514E-02
 -0.63086E-02
 -0.10716E-01
  0.13854E-01
 -0.45965E-02
  0.33099E-02
  0.10306E-01
  0.11426E-01
  0.97055E-02
 -0.25664E-02
 -0.17887E-01
 -0.12666E-01
  0.50380E-02
 -0.11088E-01
 -0.16380E-01
  0.10145E-01
 -0.16137E-01
  0.15030E-02
  0.98628E-02
 -0.18851E-02
  0.10235E-02
 -0.55676E-02
 -0.30874E-03
  0.11127E-01
  0.23059E-01
 -0.31185E-01
  0.17993E-02
  0.67042E-02
 -0.11253E-02
 -0.36177E-01
 -0.25019E-01
 -0.57517E-02
 -0.37434E-02
 -0.13651E-02
 -0.81116E-03
  0.65039E-02
  0.78963E-02
  0.14141E-02
 -0.17649E-01
 -0.11266E-01
 -0.26683E-01
  0.73989E-02
 -0.12921E-01
  0.53524E-02
  0.10218E-01
  0.86713E-02
  0.11799E-03
 -0.86748E-02
 -0.13785E-01
 -0.29179E-02
  0.31891E-02
  0.79918E-02
 -0.12455E-01
 -0.10364E-01
 -0.40648E-01
 -0.40027E-01
  0.11233E-01
  0.74538E-02
  0.41896E-02
  0.21813E-02
 -0.16727E-02
  
 VECTORS vector_U float