# vtk DataFile Version 2.0
Unstructured Grid UFVM-ECOMOD
ASCII
DATASET UNSTRUCTURED_GRID
 POINTS         2086  float
  0.00000E+00  0.00000E+00  0.00000E+00
  0.40000E+01  0.00000E+00  0.00000E+00
  0.40000E+01  0.20000E+01  0.00000E+00
  0.00000E+00  0.20000E+01  0.00000E+00
  0.11787E+01  0.12812E+01  0.00000E+00
  0.11720E+01  0.12579E+01  0.00000E+00
  0.11523E+01  0.12361E+01  0.00000E+00
  0.11208E+01  0.12171E+01  0.00000E+00
  0.10795E+01  0.12021E+01  0.00000E+00
  0.10311E+01  0.11921E+01  0.00000E+00
  0.97842E+00  0.11877E+01  0.00000E+00
  0.92495E+00  0.11892E+01  0.00000E+00
  0.87399E+00  0.11964E+01  0.00000E+00
  0.82875E+00  0.12090E+01  0.00000E+00
  0.79207E+00  0.12262E+01  0.00000E+00
  0.76626E+00  0.12467E+01  0.00000E+00
  0.75294E+00  0.12695E+01  0.00000E+00
  0.75294E+00  0.12930E+01  0.00000E+00
  0.76626E+00  0.13158E+01  0.00000E+00
  0.79207E+00  0.13363E+01  0.00000E+00
  0.82875E+00  0.13535E+01  0.00000E+00
  0.87399E+00  0.13661E+01  0.00000E+00
  0.92495E+00  0.13733E+01  0.00000E+00
  0.97842E+00  0.13748E+01  0.00000E+00
  0.10311E+01  0.13704E+01  0.00000E+00
  0.10795E+01  0.13604E+01  0.00000E+00
  0.11208E+01  0.13454E+01  0.00000E+00
  0.11523E+01  0.13264E+01  0.00000E+00
  0.11720E+01  0.13046E+01  0.00000E+00
  0.11275E+01  0.10550E+01  0.00000E+00
  0.11246E+01  0.10357E+01  0.00000E+00
  0.11162E+01  0.10177E+01  0.00000E+00
  0.11028E+01  0.10019E+01  0.00000E+00
  0.10851E+01  0.98956E+00  0.00000E+00
  0.10644E+01  0.98129E+00  0.00000E+00
  0.10420E+01  0.97765E+00  0.00000E+00
  0.10192E+01  0.97887E+00  0.00000E+00
  0.99740E+00  0.98488E+00  0.00000E+00
  0.97809E+00  0.99529E+00  0.00000E+00
  0.96243E+00  0.10094E+01  0.00000E+00
  0.95141E+00  0.10265E+01  0.00000E+00
  0.94572E+00  0.10453E+01  0.00000E+00
  0.94572E+00  0.10647E+01  0.00000E+00
  0.95141E+00  0.10835E+01  0.00000E+00
  0.96243E+00  0.11005E+01  0.00000E+00
  0.97809E+00  0.11147E+01  0.00000E+00
  0.99740E+00  0.11251E+01  0.00000E+00
  0.10192E+01  0.11311E+01  0.00000E+00
  0.10420E+01  0.11323E+01  0.00000E+00
  0.10644E+01  0.11287E+01  0.00000E+00
  0.10851E+01  0.11204E+01  0.00000E+00
  0.11028E+01  0.11080E+01  0.00000E+00
  0.11162E+01  0.10923E+01  0.00000E+00
  0.11246E+01  0.10743E+01  0.00000E+00
  0.62875E+00  0.11344E+01  0.00000E+00
  0.62759E+00  0.10960E+01  0.00000E+00
  0.62419E+00  0.10600E+01  0.00000E+00
  0.61876E+00  0.10287E+01  0.00000E+00
  0.61163E+00  0.10040E+01  0.00000E+00
  0.60327E+00  0.98756E+00  0.00000E+00
  0.59419E+00  0.98030E+00  0.00000E+00
  0.58497E+00  0.98273E+00  0.00000E+00
  0.57617E+00  0.99469E+00  0.00000E+00
  0.56837E+00  0.10154E+01  0.00000E+00
  0.56204E+00  0.10436E+01  0.00000E+00
  0.55759E+00  0.10776E+01  0.00000E+00
  0.55529E+00  0.11150E+01  0.00000E+00
  0.55529E+00  0.11537E+01  0.00000E+00
  0.55759E+00  0.11912E+01  0.00000E+00
  0.56204E+00  0.12251E+01  0.00000E+00
  0.56837E+00  0.12533E+01  0.00000E+00
  0.57617E+00  0.12741E+01  0.00000E+00
  0.58497E+00  0.12860E+01  0.00000E+00
  0.59419E+00  0.12885E+01  0.00000E+00
  0.60327E+00  0.12812E+01  0.00000E+00
  0.61163E+00  0.12647E+01  0.00000E+00
  0.61876E+00  0.12401E+01  0.00000E+00
  0.62419E+00  0.12087E+01  0.00000E+00
  0.62759E+00  0.11728E+01  0.00000E+00
  0.10000E+00  0.00000E+00  0.00000E+00
  0.20000E+00  0.00000E+00  0.00000E+00
  0.30000E+00  0.00000E+00  0.00000E+00
  0.40000E+00  0.00000E+00  0.00000E+00
  0.50000E+00  0.00000E+00  0.00000E+00
  0.60000E+00  0.00000E+00  0.00000E+00
  0.70000E+00  0.00000E+00  0.00000E+00
  0.80000E+00  0.00000E+00  0.00000E+00
  0.90000E+00  0.00000E+00  0.00000E+00
  0.10000E+01  0.00000E+00  0.00000E+00
  0.11000E+01  0.00000E+00  0.00000E+00
  0.12000E+01  0.00000E+00  0.00000E+00
  0.13000E+01  0.00000E+00  0.00000E+00
  0.14000E+01  0.00000E+00  0.00000E+00
  0.15000E+01  0.00000E+00  0.00000E+00
  0.16000E+01  0.00000E+00  0.00000E+00
  0.17000E+01  0.00000E+00  0.00000E+00
  0.18000E+01  0.00000E+00  0.00000E+00
  0.19000E+01  0.00000E+00  0.00000E+00
  0.20000E+01  0.00000E+00  0.00000E+00
  0.21000E+01  0.00000E+00  0.00000E+00
  0.22000E+01  0.00000E+00  0.00000E+00
  0.23000E+01  0.00000E+00  0.00000E+00
  0.24000E+01  0.00000E+00  0.00000E+00
  0.25000E+01  0.00000E+00  0.00000E+00
  0.26000E+01  0.00000E+00  0.00000E+00
  0.27000E+01  0.00000E+00  0.00000E+00
  0.28000E+01  0.00000E+00  0.00000E+00
  0.29000E+01  0.00000E+00  0.00000E+00
  0.30000E+01  0.00000E+00  0.00000E+00
  0.31000E+01  0.00000E+00  0.00000E+00
  0.32000E+01  0.00000E+00  0.00000E+00
  0.33000E+01  0.00000E+00  0.00000E+00
  0.34000E+01  0.00000E+00  0.00000E+00
  0.35000E+01  0.00000E+00  0.00000E+00
  0.36000E+01  0.00000E+00  0.00000E+00
  0.37000E+01  0.00000E+00  0.00000E+00
  0.38000E+01  0.00000E+00  0.00000E+00
  0.39000E+01  0.00000E+00  0.00000E+00
  0.40000E+01  0.10000E+00  0.00000E+00
  0.40000E+01  0.20000E+00  0.00000E+00
  0.40000E+01  0.30000E+00  0.00000E+00
  0.40000E+01  0.40000E+00  0.00000E+00
  0.40000E+01  0.50000E+00  0.00000E+00
  0.40000E+01  0.60000E+00  0.00000E+00
  0.40000E+01  0.70000E+00  0.00000E+00
  0.40000E+01  0.80000E+00  0.00000E+00
  0.40000E+01  0.90000E+00  0.00000E+00
  0.40000E+01  0.10000E+01  0.00000E+00
  0.40000E+01  0.11000E+01  0.00000E+00
  0.40000E+01  0.12000E+01  0.00000E+00
  0.40000E+01  0.13000E+01  0.00000E+00
  0.40000E+01  0.14000E+01  0.00000E+00
  0.40000E+01  0.15000E+01  0.00000E+00
  0.40000E+01  0.16000E+01  0.00000E+00
  0.40000E+01  0.17000E+01  0.00000E+00
  0.40000E+01  0.18000E+01  0.00000E+00
  0.40000E+01  0.19000E+01  0.00000E+00
  0.39000E+01  0.20000E+01  0.00000E+00
  0.38000E+01  0.20000E+01  0.00000E+00
  0.37000E+01  0.20000E+01  0.00000E+00
  0.36000E+01  0.20000E+01  0.00000E+00
  0.35000E+01  0.20000E+01  0.00000E+00
  0.34000E+01  0.20000E+01  0.00000E+00
  0.33000E+01  0.20000E+01  0.00000E+00
  0.32000E+01  0.20000E+01  0.00000E+00
  0.31000E+01  0.20000E+01  0.00000E+00
  0.30000E+01  0.20000E+01  0.00000E+00
  0.29000E+01  0.20000E+01  0.00000E+00
  0.28000E+01  0.20000E+01  0.00000E+00
  0.27000E+01  0.20000E+01  0.00000E+00
  0.26000E+01  0.20000E+01  0.00000E+00
  0.25000E+01  0.20000E+01  0.00000E+00
  0.24000E+01  0.20000E+01  0.00000E+00
  0.23000E+01  0.20000E+01  0.00000E+00
  0.22000E+01  0.20000E+01  0.00000E+00
  0.21000E+01  0.20000E+01  0.00000E+00
  0.20000E+01  0.20000E+01  0.00000E+00
  0.19000E+01  0.20000E+01  0.00000E+00
  0.18000E+01  0.20000E+01  0.00000E+00
  0.17000E+01  0.20000E+01  0.00000E+00
  0.16000E+01  0.20000E+01  0.00000E+00
  0.15000E+01  0.20000E+01  0.00000E+00
  0.14000E+01  0.20000E+01  0.00000E+00
  0.13000E+01  0.20000E+01  0.00000E+00
  0.12000E+01  0.20000E+01  0.00000E+00
  0.11000E+01  0.20000E+01  0.00000E+00
  0.10000E+01  0.20000E+01  0.00000E+00
  0.90000E+00  0.20000E+01  0.00000E+00
  0.80000E+00  0.20000E+01  0.00000E+00
  0.70000E+00  0.20000E+01  0.00000E+00
  0.60000E+00  0.20000E+01  0.00000E+00
  0.50000E+00  0.20000E+01  0.00000E+00
  0.40000E+00  0.20000E+01  0.00000E+00
  0.30000E+00  0.20000E+01  0.00000E+00
  0.20000E+00  0.20000E+01  0.00000E+00
  0.10000E+00  0.20000E+01  0.00000E+00
  0.00000E+00  0.19000E+01  0.00000E+00
  0.00000E+00  0.18000E+01  0.00000E+00
  0.00000E+00  0.17000E+01  0.00000E+00
  0.00000E+00  0.16000E+01  0.00000E+00
  0.00000E+00  0.15000E+01  0.00000E+00
  0.00000E+00  0.14000E+01  0.00000E+00
  0.00000E+00  0.13000E+01  0.00000E+00
  0.00000E+00  0.12000E+01  0.00000E+00
  0.00000E+00  0.11000E+01  0.00000E+00
  0.00000E+00  0.10000E+01  0.00000E+00
  0.00000E+00  0.90000E+00  0.00000E+00
  0.00000E+00  0.80000E+00  0.00000E+00
  0.00000E+00  0.70000E+00  0.00000E+00
  0.00000E+00  0.60000E+00  0.00000E+00
  0.00000E+00  0.50000E+00  0.00000E+00
  0.00000E+00  0.40000E+00  0.00000E+00
  0.00000E+00  0.30000E+00  0.00000E+00
  0.00000E+00  0.20000E+00  0.00000E+00
  0.00000E+00  0.10000E+00  0.00000E+00
  0.11961E+01  0.12633E+01  0.00000E+00
  0.21488E+01  0.93320E-01  0.00000E+00
  0.61866E+00  0.98978E+00  0.00000E+00
  0.20489E+01  0.19184E+01  0.00000E+00
  0.25498E+01  0.19136E+01  0.00000E+00
  0.29499E+01  0.86560E-01  0.00000E+00
  0.93236E+00  0.10310E+01  0.00000E+00
  0.17510E+01  0.72450E-01  0.00000E+00
  0.29467E+01  0.19168E+01  0.00000E+00
  0.25487E+01  0.85720E-01  0.00000E+00
  0.76221E+00  0.13471E+01  0.00000E+00
  0.39134E+01  0.10499E+01  0.00000E+00
  0.11777E+01  0.13352E+01  0.00000E+00
  0.75033E+00  0.75620E-01  0.00000E+00
  0.13476E+01  0.80200E-01  0.00000E+00
  0.10427E+01  0.86980E-01  0.00000E+00
  0.16534E+01  0.19146E+01  0.00000E+00
  0.33491E+01  0.86080E-01  0.00000E+00
  0.76560E-01  0.54986E+00  0.00000E+00
  0.33536E+01  0.19187E+01  0.00000E+00
  0.64251E+00  0.10384E+01  0.00000E+00
  0.54363E+00  0.10247E+01  0.00000E+00
  0.39158E+01  0.64933E+00  0.00000E+00
  0.53844E+00  0.12429E+01  0.00000E+00
  0.11152E+01  0.13830E+01  0.00000E+00
  0.39057E+01  0.13553E+01  0.00000E+00
  0.45348E+00  0.19192E+01  0.00000E+00
  0.84329E+00  0.13986E+01  0.00000E+00
  0.10069E+01  0.14153E+01  0.00000E+00
  0.79140E-01  0.15509E+01  0.00000E+00
  0.51664E+00  0.11388E+01  0.00000E+00
  0.13387E+01  0.19132E+01  0.00000E+00
  0.61809E+00  0.12788E+01  0.00000E+00
  0.44149E+00  0.86000E-01  0.00000E+00
  0.82010E-01  0.85167E+00  0.00000E+00
  0.79235E+00  0.11912E+01  0.00000E+00
  0.73934E+00  0.19100E+01  0.00000E+00
  0.97720E-01  0.12541E+01  0.00000E+00
  0.36625E+01  0.99060E-01  0.00000E+00
  0.36500E+01  0.19142E+01  0.00000E+00
  0.10534E+01  0.19002E+01  0.00000E+00
  0.93232E+00  0.10799E+01  0.00000E+00
  0.73234E+00  0.12821E+01  0.00000E+00
  0.11221E+01  0.11125E+01  0.00000E+00
  0.38972E+01  0.16498E+01  0.00000E+00
  0.39125E+01  0.34987E+00  0.00000E+00
  0.91360E-01  0.10554E+01  0.00000E+00
  0.66195E+00  0.11154E+01  0.00000E+00
  0.82340E-01  0.34870E+00  0.00000E+00
  0.18502E+01  0.19156E+01  0.00000E+00
  0.15459E+01  0.76350E-01  0.00000E+00
  0.19483E+01  0.85500E-01  0.00000E+00
[...]
 POINT_DATA         2086
  
 SCALARS WL      float 1
 LOOKUP_TABLE default
  0.11270E-01
  0.11704E-02
  0.43583E-02
  0.22735E-01
 -0.30572E-01
 -0.31834E-01
 -0.20998E-01
 -0.12178E-01
 -0.13098E-01
 -0.13781E-01
 -0.13446E-01
 -0.13747E-01
 -0.13885E-01
 -0.13223E-01
 -0.12743E-01
 -0.12490E-01
 -0.13590E-01
 -0.11771E-01
 -0.49589E-02
 -0.24724E-02
 -0.78988E-02
 -0.22097E-01
 -0.36335E-01
 -0.49904E-01
 -0.52299E-01
 -0.43423E-01
 -0.32281E-01
 -0.27655E-01
 -0.27230E-01
 -0.18391E-01
 -0.16926E-01
 -0.17052E-01
 -0.18259E-01
 -0.19510E-01
 -0.19898E-01
 -0.20559E-01
 -0.21789E-01
 -0.22597E-01
 -0.21652E-01
 -0.19566E-01
 -0.18102E-01
 -0.17009E-01
 -0.15950E-01
 -0.15090E-01
 -0.14450E-01
 -0.13960E-01
 -0.13672E-01
 -0.13748E-01
 -0.14222E-01
 -0.15058E-01
 -0.15782E-01
 -0.16012E-01
 -0.18481E-01
 -0.19395E-01
 -0.11904E-01
 -0.12566E-01
 -0.12755E-01
 -0.12464E-01
 -0.12235E-01
 -0.12322E-01
 -0.12859E-01
 -0.60627E-02
  0.10469E-01
  0.26016E-01
  0.35799E-01
  0.41116E-01
  0.43617E-01
  0.44121E-01
  0.42747E-01
  0.38505E-01
  0.29101E-01
  0.12283E-01
 -0.50290E-02
 -0.11761E-01
 -0.11504E-01
 -0.11899E-01
 -0.11668E-01
 -0.10854E-01
 -0.11150E-01
  0.11156E-01
  0.10863E-01
  0.10349E-01
  0.97107E-02
  0.90562E-02
  0.83558E-02
  0.78608E-02
  0.74698E-02
  0.73193E-02
  0.71468E-02
  0.68671E-02
  0.64475E-02
  0.60519E-02
  0.56999E-02
  0.55499E-02
  0.54776E-02
  0.55325E-02
  0.55870E-02
  0.56766E-02
  0.57553E-02
  0.59221E-02
  0.61642E-02
  0.64880E-02
  0.69913E-02
  0.75481E-02
  0.81412E-02
  0.86986E-02
  0.91315E-02
  0.94331E-02
  0.95863E-02
  0.95054E-02
  0.93918E-02
  0.92047E-02
  0.87788E-02
  0.81776E-02
  0.72843E-02
  0.60498E-02
  0.45309E-02
  0.25300E-02
  0.00000E+00
  0.00000E+00
  0.00000E+00
  0.00000E+00
  0.00000E+00
  0.00000E+00
  0.00000E+00
  0.00000E+00
  0.00000E+00
  0.00000E+00
  0.00000E+00
  0.00000E+00
  0.00000E+00
  0.00000E+00
  0.00000E+00
  0.00000E+00
  0.00000E+00
  0.00000E+00
  0.00000E+00
  0.57523E-02
  0.76881E-02
  0.90921E-02
  0.10337E-01
  0.11307E-01
  0.11258E-01
  0.97382E-02
  0.75888E-02
  0.60929E-02
  0.50328E-02
  0.46210E-02
  0.46775E-02
  0.50482E-02
  0.56214E-02
  0.61778E-02
  0.62279E-02
  0.58641E-02
  0.48786E-02
  0.44081E-02
  0.39957E-02
  0.34393E-02
  0.27211E-02
  0.17382E-02
  0.40231E-03
 -0.14456E-02
 -0.41490E-02
 -0.71096E-02
 -0.92346E-02
 -0.94602E-02
 -0.70850E-02
 -0.27966E-02
  0.20169E-02
  0.66573E-02
  0.11039E-01
  0.14758E-01
  0.17778E-01
  0.20170E-01
  0.21801E-01
  0.22587E-01
  0.22861E-01
  0.23243E-01
  0.23844E-01
  0.24628E-01
  0.25540E-01
  0.26411E-01
  0.27045E-01
  0.27222E-01
  0.26742E-01
  0.25500E-01
  0.23690E-01
  0.21557E-01
  0.19298E-01
  0.17295E-01
  0.15483E-01
  0.13938E-01
  0.12798E-01
  0.11966E-01
  0.11475E-01
 -0.30494E-01
  0.60632E-02
 -0.12176E-01
  0.42441E-02
  0.57135E-02
  0.94317E-02
 -0.17493E-01
  0.55490E-02
  0.45293E-02
  0.78139E-02
 -0.37140E-02
 -0.31269E-02
 -0.26785E-01
  0.76130E-02
  0.56627E-02
  0.67822E-02
  0.10604E-02
  0.89125E-02
  0.16422E-01
  0.10370E-01
 -0.12609E-01
  0.32301E-01
  0.40150E-03
  0.35635E-01
 -0.36478E-01
 -0.33508E-02
  0.16302E-01
 -0.12937E-01
 -0.50004E-01
  0.25237E-01
  0.43357E-01
 -0.61498E-02
 -0.11472E-01
  0.95444E-02
  0.22949E-01
 -0.12997E-01
  0.46395E-02
  0.27842E-01
  0.63954E-02
  0.93994E-02
 -0.92420E-02
 -0.15380E-01
 -0.13945E-01
 -0.16795E-01
  0.25725E-02
  0.13932E-02
  0.26861E-01
 -0.12460E-01
  0.13295E-01
  0.30240E-02
  0.54118E-02
  0.57538E-02
  0.53942E-02
  0.67801E-02
  0.66328E-02
  0.45913E-02
  0.88585E-02
  0.94079E-02
 -0.10851E-02
  0.23567E-01
 -0.11318E-01
 -0.16112E-01
  0.10730E-01
 -0.12356E-01
 -0.27027E-01
 -0.28561E-01
 -0.25613E-01
 -0.28901E-01
 -0.24240E-01
 -0.29861E-01
 -0.25557E-01
 -0.31733E-01
 -0.35616E-01
 -0.37927E-01
 -0.40596E-01
 -0.43048E-01
 -0.44809E-01
 -0.46988E-01
 -0.47615E-01
 -0.48980E-01
 -0.47517E-01
 -0.47231E-01
 -0.42530E-01
 -0.40506E-01
 -0.32930E-01
 -0.29985E-01
 -0.21600E-01
 -0.18630E-01
 -0.24405E-01
 -0.14539E-01
 -0.46953E-01
 -0.28150E-01
 -0.10973E-01
 -0.18108E-01
 -0.10894E-01
 -0.12935E-01
 -0.86706E-02
 -0.99509E-02
 -0.80066E-02
 -0.57550E-02
 -0.66969E-02
 -0.85519E-02
 -0.86234E-02
 -0.38032E-02
 -0.12035E-01
 -0.27886E-02
 -0.25878E-02
  0.52134E-02
  0.55125E-02
  0.10174E-01
  0.86663E-02
 -0.99348E-02
 -0.11316E-01
 -0.17657E-01
 -0.12125E-01
 -0.13688E-01
  0.99851E-02
  0.71916E-02
 -0.14115E-01
 -0.13823E-01
 -0.12348E-01
 -0.10910E-01
 -0.12438E-01
 -0.87283E-02
 -0.61033E-02
 -0.44418E-02
 -0.69734E-02
 -0.37837E-02
 -0.65096E-02
 -0.43315E-02
 -0.97848E-02
 -0.76651E-02
 -0.64380E-02
  0.75460E-02
  0.43984E-02
 -0.24206E-02
 -0.50108E-02
 -0.10161E-01
 -0.86221E-02
 -0.14476E-01
 -0.11945E-01
 -0.16386E-02
 -0.17278E-01
 -0.12940E-01
 -0.17083E-01
 -0.11541E-01
 -0.78102E-02
 -0.63255E-02
 -0.85896E-02
 -0.35760E-02
  0.50547E-02
  0.71577E-02
  0.22758E-02
 -0.41882E-02
 -0.56985E-02
 -0.21087E-02
 -0.23652E-01
 -0.25857E-01
 -0.21769E-01
 -0.21829E-01
  0.84470E-03
 -0.18019E-01
 -0.60119E-03
 -0.26136E-02
 -0.29119E-02
 -0.52225E-02
 -0.44176E-02
 -0.67153E-02
 -0.21931E-01
 -0.52203E-02
 -0.20488E-01
 -0.72792E-02
 -0.52884E-02
 -0.70296E-02
 -0.47371E-02
 -0.63213E-02
 -0.38559E-02
 -0.50752E-02
 -0.25988E-02
 -0.35298E-02
 -0.11053E-02
 -0.16985E-02
  0.60427E-03
  0.17472E-03
 -0.21690E-02
 -0.10305E-03
 -0.25054E-02
 -0.27389E-03
  0.19020E-02
  0.20433E-02
  0.39476E-02
  0.44361E-02
  0.61117E-02
  0.69616E-02
 -0.27970E-02
  0.83705E-02
  0.73903E-02
  0.93845E-02
 -0.19633E-01
  0.95702E-02
 -0.50199E-02
 -0.55065E-02
 -0.18313E-01
 -0.16690E-01
  0.50547E-02
 -0.34516E-02
  0.87611E-03
 -0.26279E-02
  0.97953E-03
 -0.69384E-03
  0.11989E-02
 -0.85354E-02
 -0.12719E-01
 -0.41951E-01
 -0.19710E-01
 -0.76863E-02
 -0.84284E-02
  0.18364E-02
  0.34832E-02
  0.31708E-02
  0.82938E-02
  0.10081E-01
 -0.15061E-01
 -0.12823E-01
 -0.14425E-01
 -0.10446E-01
 -0.11309E-01
  0.43490E-02
 -0.10580E-01
 -0.11297E-01
 -0.92266E-02
 -0.11814E-01
 -0.99621E-02
 -0.12228E-01
 -0.10863E-01
 -0.13107E-01
 -0.13175E-01
  0.37409E-02
  0.22836E-02
  0.50491E-02
 -0.59223E-02
 -0.77930E-02
 -0.80637E-02
 -0.13640E-01
 -0.13544E-01
  0.89517E-02
  0.10430E-01
  0.11707E-01
 -0.41361E-01
 -0.12411E-01
  0.49264E-02
 -0.91139E-02
 -0.50685E-02
 -0.51849E-02
  0.59653E-02
  0.11700E-01
  0.92234E-02
 -0.94057E-02
 -0.29102E-02
 -0.29080E-02
 -0.13967E-01
 -0.13742E-01
 -0.14103E-01
 -0.16017E-01
 -0.13064E-01
 -0.18960E-01
  0.94063E-02
  0.54890E-02
  0.63925E-02
  0.67954E-02
 -0.16258E-01
 -0.21551E-01
  0.13150E-01
 -0.13399E-01
 -0.13575E-01
 -0.13924E-01
 -0.13749E-01
 -0.11059E-02
 -0.12744E-02
  0.79841E-02
 -0.81187E-02
 -0.90158E-02
 -0.14060E-01
 -0.98619E-02
 -0.12780E-01
 -0.54728E-02
  0.56018E-02
  0.45249E-02
 -0.14501E-01
 -0.15130E-01
  0.12722E-01
  0.65141E-02
 -0.59071E-02
 -0.67874E-02
 -0.98307E-02
 -0.76512E-02
 -0.40031E-02
 -0.43030E-02
 -0.72596E-03
 -0.40553E-03
  0.30338E-02
  0.42910E-02
  0.73274E-02
  0.99148E-02
  0.11814E-01
  0.15328E-01
  0.15742E-01
  0.19611E-01
  0.18648E-01
  0.22404E-01
  0.20713E-01
  0.23782E-01
  0.21942E-01
 -0.10600E-01
  0.26101E-01
  0.26534E-01
  0.29307E-01
  0.19270E-01
  0.20327E-01
  0.24918E-03
 -0.73111E-04
 -0.29659E-01
 -0.28935E-02
  0.98516E-03
  0.32468E-03
  0.31976E-02
  0.29782E-02
  0.48781E-02
  0.48627E-02
  0.48951E-02
  0.59986E-02
  0.59064E-02
  0.65959E-02
  0.64705E-02
  0.29264E-02
  0.49824E-02
  0.32620E-02
  0.52919E-02
  0.60890E-02
  0.62120E-02
  0.39556E-02
  0.65043E-02
  0.64222E-02
  0.68787E-02
  0.67852E-02
  0.62736E-02
  0.62661E-02
 -0.14113E-01
 -0.96355E-02
 -0.59366E-02
 -0.86711E-02
 -0.47154E-02
 -0.59998E-02
 -0.23572E-02
 -0.22363E-02
 -0.16431E-03
 -0.13165E-02
  0.50271E-03
 -0.20619E-02
 -0.20923E-03
 -0.24610E-02
 -0.69523E-02
  0.62097E-02
  0.59458E-02
  0.62606E-02
  0.66295E-02
 -0.41661E-02
  0.85697E-02
  0.73135E-02
 -0.28096E-02
 -0.47825E-02
 -0.42705E-02
  0.23958E-02
 -0.90985E-02
  0.55088E-02
  0.69066E-02
 -0.19714E-01
 -0.11970E-01
 -0.14883E-01
  0.11621E-02
  0.88103E-03
  0.51451E-02
 -0.13859E-01
 -0.14061E-01
 -0.13561E-01
 -0.43142E-01
 -0.12974E-02
 -0.32760E-02
  0.11465E-01
  0.12251E-01
 -0.17675E-01
 -0.21298E-01
  0.20140E-01
 -0.22642E-02
 -0.69088E-02
  0.22506E-01
  0.20730E-01
  0.14467E-01
  0.28633E-01
  0.31435E-01
 -0.11832E-01
 -0.13291E-01
  0.62447E-02
  0.59596E-02
  0.64259E-02
  0.69341E-02
  0.68357E-02
  0.61646E-02
  0.67049E-02
  0.64665E-02
  0.73020E-02
 -0.52312E-03
 -0.39795E-01
  0.57996E-02
  0.65234E-02
  0.72950E-02
  0.72424E-02
 -0.15134E-01
 -0.16271E-01
 -0.68672E-02
 -0.51615E-02
 -0.28741E-02
  0.70291E-02
  0.19917E-02
  0.15439E-02
 -0.29193E-03
  0.98546E-04
  0.22947E-02
  0.56125E-03
  0.30843E-02
  0.13434E-02
 -0.25389E-02
 -0.13056E-02
  0.20075E-02
 -0.81346E-03
  0.20736E-02
 -0.12848E-02
 -0.14023E-01
 -0.17187E-01
  0.65549E-02
  0.51608E-02
  0.14120E-02
 -0.27165E-02
  0.92494E-02
 -0.14289E-01
  0.22038E-02
  0.98712E-04
 -0.46188E-02
 -0.13617E-01
  0.72913E-02
 -0.67414E-02
 -0.15844E-01
 -0.18862E-01
 -0.17008E-01
 -0.19485E-01
 -0.17441E-01
 -0.19158E-01
 -0.17483E-01
 -0.18824E-01
 -0.17512E-01
 -0.19291E-01
 -0.17542E-01
 -0.19799E-01
 -0.54617E-02
  0.47617E-02
 -0.17069E-01
 -0.19204E-01
 -0.15361E-01
 -0.17089E-01
 -0.12170E-01
 -0.14070E-01
 -0.18517E-01
 -0.16112E-01
 -0.19510E-01
 -0.18191E-01
 -0.21051E-01
 -0.21875E-01
 -0.24140E-01
 -0.17936E-01
 -0.14262E-01
 -0.82248E-02
 -0.11087E-01
 -0.64839E-02
  0.64789E-02
 -0.29397E-02
  0.78969E-02
  0.68457E-02
  0.90499E-02
 -0.14009E-01
 -0.14212E-01
 -0.19758E-01
 -0.27075E-01
 -0.28230E-01
  0.53366E-02
 -0.11728E-01
 -0.11865E-01
 -0.36136E-02
 -0.24613E-01
 -0.27868E-01
 -0.24001E-01
 -0.26402E-01
 -0.13121E-01
 -0.26823E-02
  0.72620E-02
  0.29863E-01
  0.32399E-01
  0.27674E-01
  0.15653E-01
  0.75361E-03
  0.25158E-02
 -0.34166E-02
 -0.32561E-01
 -0.10283E-01
  0.14284E-02
 -0.15199E-02
  0.15369E-02
 -0.27266E-01
 -0.22823E-01
 -0.26973E-01
  0.42154E-02
 -0.16096E-01
 -0.17763E-01
  0.13237E-01
  0.50404E-02
  0.43074E-02
 -0.18294E-01
 -0.17467E-01
 -0.21716E-01
 -0.14808E-01
 -0.18341E-01
 -0.10770E-01
 -0.88376E-02
 -0.49108E-02
 -0.60441E-02
 -0.10365E-02
 -0.17898E-02
  0.25579E-02
  0.19422E-02
  0.58780E-02
  0.49493E-02
  0.91420E-02
  0.89860E-02
  0.12692E-01
  0.13155E-01
  0.16360E-01
  0.17444E-01
  0.19975E-01
  0.21853E-01
  0.18489E-01
  0.84473E-02
  0.23023E-01
  0.25292E-01
  0.93745E-02
  0.25386E-01
  0.27705E-01
  0.20227E-01
  0.29977E-02
  0.28706E-01
  0.30146E-01
  0.28742E-01
  0.23442E-01
  0.32010E-01
  0.32311E-01
  0.10278E-02
  0.25205E-01
  0.23504E-01
  0.35255E-01
 -0.16208E-01
  0.11117E-01
  0.11751E-01
 -0.96333E-02
 -0.10772E-01
 -0.81069E-02
 -0.16180E-01
 -0.83076E-02
 -0.12089E-01
 -0.12632E-01
  0.34963E-01
 -0.79567E-02
  0.33889E-01
  0.12910E-01
  0.63537E-02
  0.71914E-02
  0.79477E-02
  0.78808E-02
 -0.12123E-01
 -0.19348E-01
  0.29981E-01
 -0.90344E-02
  0.31562E-01
  0.43818E-02
 -0.21465E-02
 -0.20308E-01
 -0.13298E-01
 -0.13162E-01
 -0.21811E-01
  0.82071E-02
  0.70684E-02
  0.78352E-02
  0.59280E-02
  0.57055E-02
  0.65937E-02
  0.56349E-02
  0.44605E-02
  0.46280E-02
  0.31995E-02
  0.35937E-02
  0.20386E-02
  0.26665E-02
  0.10744E-02
  0.19113E-02
  0.34004E-02
  0.28126E-02
  0.14599E-02
  0.25179E-02
  0.14479E-02
  0.25978E-02
  0.41563E-02
  0.19672E-02
  0.30566E-02
  0.35762E-02
  0.39671E-02
  0.38496E-02
 -0.37846E-02
 -0.12109E-01
 -0.14269E-01
 -0.12923E-01
 -0.14273E-01
 -0.12595E-01
 -0.14816E-01
 -0.13050E-01
 -0.10689E-01
 -0.10412E-01
 -0.98859E-02
 -0.65038E-02
 -0.52303E-02
 -0.46920E-03
  0.23539E-02
 -0.22009E-02
  0.57664E-02
  0.66131E-02
 -0.14005E-01
  0.32249E-01
  0.21147E-01
  0.79460E-02
 -0.91465E-02
  0.18767E-01
  0.19131E-01
 -0.14622E-01
  0.34892E-02
  0.43007E-02
 -0.60884E-04
  0.24871E-02
  0.12250E-01
  0.85215E-02
  0.65616E-02
  0.66191E-02
 -0.21845E-01
  0.30254E-01
 -0.25130E-02
 -0.24187E-02
 -0.50403E-02
 -0.19445E-02
 -0.40969E-02
 -0.12354E-02
  0.83702E-02
 -0.72499E-02
  0.40384E-02
  0.49327E-02
  0.45604E-02
  0.82281E-02
  0.62524E-02
 -0.14817E-02
  0.59898E-02
  0.69416E-02
 -0.46955E-02
  0.79733E-02
  0.18165E-01
 -0.10908E-01
  0.88618E-02
  0.13469E-01
  0.22533E-01
  0.89962E-02
 -0.20761E-01
 -0.22580E-01
 -0.24122E-01
 -0.28455E-01
  0.62778E-02
 -0.12462E-01
 -0.12296E-01
 -0.11762E-01
 -0.12298E-01
  0.85597E-02
 -0.25592E-01
 -0.30137E-01
 -0.66822E-02
 -0.17403E-01
 -0.16149E-01
 -0.14806E-01
  0.24959E-01
  0.23609E-01
  0.21911E-01
  0.22346E-01
  0.20479E-01
 -0.12110E-01
 -0.13103E-01
  0.29969E-02
  0.19784E-02
  0.58384E-02
  0.43864E-02
 -0.60905E-02
 -0.17194E-01
 -0.21207E-01
  0.21343E-02
 -0.26643E-03
 -0.70989E-02
  0.66473E-02
  0.36593E-01
  0.38518E-01
 -0.11824E-01
 -0.11429E-01
  0.69934E-03
  0.16985E-02
  0.29264E-01
 -0.21697E-01
 -0.86731E-02
 -0.12605E-01
 -0.12274E-01
 -0.12773E-01
  0.11224E-01
  0.35731E-02
  0.66164E-02
 -0.15193E-01
 -0.45048E-02
 -0.19596E-01
  0.51768E-02
 -0.14751E-01
 -0.14108E-01
  0.15396E-02
 -0.52394E-02
  0.40668E-02
 -0.52222E-02
 -0.68955E-02
 -0.95065E-02
  0.42688E-02
 -0.20212E-01
  0.79284E-02
  0.78279E-02
  0.42693E-03
  0.53647E-02
 -0.14044E-01
  0.70625E-02
 -0.47420E-02
 -0.43073E-02
 -0.15334E-02
 -0.14175E-01
 -0.64717E-02
  0.50914E-02
 -0.15090E-01
 -0.13266E-01
 -0.13106E-01
 -0.13149E-01
 -0.19411E-01
 -0.19760E-01
 -0.14596E-01
  0.39742E-02
  0.62037E-02
  0.60867E-02
  0.72457E-02
  0.75668E-02
  0.74056E-02
  0.77335E-02
 -0.13044E-01
 -0.21040E-01
  0.47975E-02
  0.53898E-02
 -0.30683E-01
 -0.31370E-01
 -0.95104E-04
  0.27938E-02
  0.28637E-02
  0.24949E-02
  0.79136E-02
 -0.21452E-01
 -0.29128E-02
  0.13093E-02
 -0.12337E-01
 -0.12531E-01
 -0.12813E-01
 -0.27954E-01
 -0.26078E-01
 -0.29419E-01
 -0.37937E-01
 -0.25611E-01
  0.39456E-01
 -0.63285E-02
  0.13067E-02
  0.23688E-01
  0.22777E-01
 -0.11310E-01
  0.42933E-02
  0.30371E-01
  0.30393E-01
 -0.85371E-03
  0.19385E-02
  0.18176E-02
  0.47814E-02
  0.51404E-02
  0.47009E-02
  0.75075E-02
  0.77734E-02
  0.83691E-02
 -0.12377E-01
 -0.73332E-02
 -0.27309E-02
 -0.38867E-02
 -0.13116E-01
  0.19390E-01
  0.18045E-01
  0.16482E-01
  0.15321E-01
  0.19254E-01
  0.31123E-02
 -0.16385E-03
  0.11620E-01
 -0.27871E-02
 -0.33179E-02
 -0.12135E-01
 -0.12244E-01
 -0.13008E-01
 -0.13300E-01
 -0.14631E-01
  0.67487E-02
  0.66026E-02
  0.64045E-02
  0.62869E-02
  0.65101E-02
  0.61056E-02
 -0.12287E-01
 -0.15437E-01
 -0.13621E-01
 -0.27128E-01
  0.12913E-01
  0.12255E-01
 -0.11697E-01
 -0.12243E-01
 -0.10463E-01
 -0.11195E-01
 -0.69528E-02
 -0.20975E-02
  0.66065E-02
 -0.87430E-02
  0.19489E-01
  0.16758E-01
  0.25205E-01
  0.22387E-01
  0.15132E-01
  0.28441E-01
 -0.23168E-03
  0.97406E-02
  0.77088E-02
 -0.14054E-01
 -0.14559E-01
 -0.75710E-02
 -0.27276E-01
 -0.22566E-01
 -0.32470E-01
 -0.27340E-01
 -0.31736E-01
  0.26395E-01
  0.11621E-01
  0.17351E-01
  0.17633E-01
  0.19152E-01
 -0.70092E-02
 -0.80475E-02
 -0.69194E-02
  0.77174E-02
  0.78248E-02
  0.79658E-02
  0.82575E-02
  0.84216E-02
 -0.48512E-02
 -0.47718E-02
 -0.50453E-02
 -0.38481E-02
 -0.45288E-02
  0.13373E-01
  0.14182E-01
 -0.12013E-01
 -0.18374E-01
  0.41714E-02
  0.11957E-02
 -0.27661E-02
 -0.33813E-03
 -0.85409E-02
  0.54780E-02
  0.14518E-02
  0.48482E-02
  0.94490E-02
  0.87491E-02
 -0.18748E-01
 -0.19206E-01
 -0.18168E-01
 -0.16308E-01
  0.11086E-01
 -0.25226E-02
  0.75812E-04
 -0.38464E-04
  0.64739E-02
 -0.17187E-01
 -0.18170E-01
 -0.18483E-01
 -0.16789E-01
 -0.16471E-01
 -0.15809E-01
 -0.62364E-02
 -0.20232E-01
 -0.35895E-03
  0.36934E-02
  0.41688E-02
 -0.13415E-01
  0.41453E-02
  0.34726E-02
 -0.14702E-01
 -0.14195E-01
 -0.14712E-01
 -0.13798E-01
 -0.34406E-02
  0.49318E-02
 -0.12349E-01
  0.61636E-02
  0.64334E-02
  0.67321E-02
  0.66951E-02
  0.83121E-02
  0.12339E-02
  0.29544E-01
  0.48242E-02
  0.49495E-02
  0.89528E-02
 -0.86869E-02
  0.16743E-01
  0.23312E-01
  0.27402E-01
  0.65884E-02
 -0.19156E-01
 -0.19522E-01
 -0.20029E-01
  0.34887E-01
  0.49295E-02
  0.16553E-01
  0.94524E-03
  0.25566E-01
 -0.12976E-01
  0.25698E-01
  0.26847E-01
 -0.21881E-01
 -0.84572E-02
 -0.12834E-01
  0.14592E-01
 -0.18733E-01
 -0.22041E-01
 -0.21612E-01
 -0.19672E-01
 -0.12126E-01
  0.36509E-02
  0.41259E-02
  0.28914E-01
  0.24852E-01
  0.33427E-01
 -0.20231E-01
 -0.21582E-01
 -0.15740E-01
 -0.23545E-01
  0.89372E-02
 -0.28231E-02
  0.42374E-04
 -0.14566E-01
 -0.30491E-01
 -0.35580E-01
 -0.41795E-01
 -0.34989E-01
  0.98114E-02
  0.55781E-02
 -0.85166E-03
  0.11948E-02
  0.51969E-02
  0.17277E-01
  0.18923E-01
  0.20713E-01
  0.14524E-01
 -0.10945E-01
 -0.97664E-02
 -0.21135E-01
 -0.22492E-01
 -0.19121E-01
  0.13749E-01
  0.18957E-01
  0.23631E-01
  0.34155E-01
  0.12720E-01
  0.47861E-02
 -0.26375E-02
 -0.13653E-01
 -0.13531E-01
  0.69392E-02
  0.69396E-02
  0.98916E-02
 -0.12292E-01
  0.63002E-02
 -0.95347E-02
 -0.11018E-01
  0.52054E-02
  0.50758E-02
  0.56051E-02
  0.54019E-02
  0.57178E-02
 -0.19699E-01
 -0.19554E-01
 -0.25931E-01
 -0.31298E-01
 -0.13986E-01
 -0.14503E-01
 -0.29346E-02
  0.58825E-02
 -0.93756E-02
 -0.12767E-01
  0.63758E-02
  0.38442E-01
  0.35664E-01
  0.39056E-01
  0.36363E-01
  0.38768E-01
  0.40443E-01
  0.50125E-02
  0.62144E-02
 -0.45813E-02
 -0.11371E-01
 -0.11782E-01
 -0.13206E-01
 -0.10763E-01
 -0.10256E-01
 -0.12897E-01
 -0.21311E-01
 -0.72978E-02
 -0.58281E-02
 -0.21465E-01
  0.10263E-01
 -0.21483E-01
 -0.29464E-01
 -0.38175E-01
 -0.12842E-01
  0.78263E-02
  0.41610E-01
 -0.41862E-01
 -0.13931E-01
 -0.13451E-01
 -0.13986E-01
 -0.11864E-01
 -0.12512E-01
 -0.17166E-01
 -0.34113E-01
 -0.23937E-02
 -0.81063E-02
 -0.84775E-02
 -0.19426E-01
  0.16090E-01
  0.68843E-02
 -0.10058E-01
 -0.12272E-01
 -0.87161E-02
 -0.96347E-02
 -0.80978E-02
 -0.83507E-02
 -0.21450E-01
 -0.21102E-01
 -0.20817E-01
 -0.47299E-02
 -0.47544E-02
 -0.21012E-01
 -0.14419E-02
  0.46116E-03
 -0.49091E-03
 -0.20241E-01
 -0.20559E-01
 -0.11793E-02
 -0.77567E-02
  0.28976E-01
  0.28558E-01
 -0.28312E-01
  0.25029E-01
  0.24729E-01
  0.26663E-01
 -0.17367E-01
 -0.16685E-01
 -0.14714E-01
  0.84070E-02
 -0.45899E-02
 -0.12780E-01
 -0.15271E-01
  0.55645E-02
  0.57838E-02
  0.53999E-02
  0.60064E-02
 -0.12071E-01
 -0.12823E-05
 -0.12235E-01
 -0.12712E-01
  0.32747E-01
 -0.14319E-01
  0.53185E-02
  0.32213E-01
  0.23666E-02
 -0.11561E-01
 -0.27426E-01
 -0.24567E-02
 -0.11598E-01
 -0.21508E-01
 -0.20255E-01
 -0.29400E-01
 -0.28757E-02
 -0.33573E-01
 -0.26951E-01
 -0.34591E-01
 -0.13037E-01
 -0.21462E-01
  0.54263E-02
 -0.61316E-03
 -0.14330E-01
 -0.14180E-01
 -0.19938E-01
 -0.15575E-01
 -0.15343E-01
 -0.16539E-01
  0.30586E-03
 -0.63233E-03
 -0.19515E-01
  0.37640E-03
 -0.12212E-02
 -0.22590E-02
 -0.44878E-04
  0.29529E-02
  0.12465E-02
 -0.48738E-03
  0.44573E-02
  0.43958E-02
  0.62677E-02
  0.48866E-02
  0.28407E-02
  0.42166E-01
  0.41463E-01
  0.21731E-01
  0.24297E-01
  0.22105E-02
  0.15842E-02
  0.27878E-03
  0.66996E-03
 -0.81514E-03
 -0.14386E-02
 -0.27830E-02
 -0.35484E-02
 -0.54182E-02
 -0.47540E-02
 -0.63767E-02
 -0.80495E-02
 -0.67781E-02
  0.17693E-02
 -0.21579E-02
  0.27405E-02
  0.58178E-02
  0.79849E-02
  0.10945E-01
  0.12123E-01
  0.13961E-01
  0.14507E-01
  0.16421E-01
 -0.13156E-01
 -0.13432E-01
  0.24467E-01
 -0.15052E-01
 -0.12777E-01
 -0.71442E-03
  0.51923E-02
 -0.14123E-01
  0.14695E-01
 -0.12826E-01
 -0.99516E-02
  0.26201E-01
  0.27107E-01
  0.28164E-01
  0.58396E-02
 -0.13210E-01
  0.19029E-01
 -0.12078E-01
  0.56621E-02
  0.58437E-02
  0.59321E-02
  0.58523E-02
 -0.22202E-01
 -0.23955E-02
  0.20207E-01
  0.22179E-01
  0.22404E-01
  0.36570E-02
  0.31533E-02
  0.24610E-02
  0.25126E-02
 -0.79584E-03
 -0.39655E-01
  0.92163E-02
  0.68019E-02
 -0.44975E-01
 -0.19192E-03
 -0.36113E-02
 -0.49493E-02
 -0.79909E-02
 -0.92012E-02
  0.49775E-02
  0.44022E-02
  0.14292E-01
 -0.19836E-01
 -0.12855E-01
  0.50480E-02
  0.56373E-02
 -0.14151E-01
  0.72780E-02
  0.70586E-02