# vtk DataFile Version 2.0
Unstructured Grid UFVM-ECOMOD
ASCII
DATASET UNSTRUCTURED_GRID
 POINTS         2061  float
  0.00000E+00  0.00000E+00  0.00000E+00
  0.40000E+01  0.00000E+00  0.00000E+00
  0.40000E+01  0.20000E+01  0.00000E+00
  0.00000E+00  0.20000E+01  0.00000E+00
  0.11233E+01  0.11389E+01  0.00000E+00
  0.77667E+00  0.12509E+01  0.00000E+00
  0.11233E+01  0.13630E+01  0.00000E+00
  0.72667E+00  0.84537E+00  0.00000E+00
  0.72525E+00  0.78665E+00  0.00000E+00
  0.72110E+00  0.73162E+00  0.00000E+00
  0.71447E+00  0.68374E+00  0.00000E+00
  0.70578E+00  0.64602E+00  0.00000E+00
  0.69557E+00  0.62082E+00  0.00000E+00
  0.68449E+00  0.60973E+00  0.00000E+00
  0.67323E+00  0.61344E+00  0.00000E+00
  0.66251E+00  0.63173E+00  0.00000E+00
  0.65298E+00  0.66344E+00  0.00000E+00
  0.64526E+00  0.70659E+00  0.00000E+00
  0.63983E+00  0.75845E+00  0.00000E+00
  0.63702E+00  0.81578E+00  0.00000E+00
  0.63702E+00  0.87496E+00  0.00000E+00
  0.63983E+00  0.93229E+00  0.00000E+00
  0.64526E+00  0.98415E+00  0.00000E+00
  0.65298E+00  0.10273E+01  0.00000E+00
  0.66251E+00  0.10590E+01  0.00000E+00
  0.67323E+00  0.10773E+01  0.00000E+00
  0.68449E+00  0.10810E+01  0.00000E+00
  0.69557E+00  0.10699E+01  0.00000E+00
  0.70578E+00  0.10447E+01  0.00000E+00
  0.71447E+00  0.10070E+01  0.00000E+00
  0.72110E+00  0.95912E+00  0.00000E+00
  0.72525E+00  0.90409E+00  0.00000E+00
  0.10000E+00  0.00000E+00  0.00000E+00
  0.20000E+00  0.00000E+00  0.00000E+00
  0.30000E+00  0.00000E+00  0.00000E+00
  0.40000E+00  0.00000E+00  0.00000E+00
  0.50000E+00  0.00000E+00  0.00000E+00
  0.60000E+00  0.00000E+00  0.00000E+00
  0.70000E+00  0.00000E+00  0.00000E+00
  0.80000E+00  0.00000E+00  0.00000E+00
  0.90000E+00  0.00000E+00  0.00000E+00
  0.10000E+01  0.00000E+00  0.00000E+00
  0.11000E+01  0.00000E+00  0.00000E+00
  0.12000E+01  0.00000E+00  0.00000E+00
  0.13000E+01  0.00000E+00  0.00000E+00
  0.14000E+01  0.00000E+00  0.00000E+00
  0.15000E+01  0.00000E+00  0.00000E+00
  0.16000E+01  0.00000E+00  0.00000E+00
  0.17000E+01  0.00000E+00  0.00000E+00
  0.18000E+01  0.00000E+00  0.00000E+00
  0.19000E+01  0.00000E+00  0.00000E+00
  0.20000E+01  0.00000E+00  0.00000E+00
  0.21000E+01  0.00000E+00  0.00000E+00
  0.22000E+01  0.00000E+00  0.00000E+00
  0.23000E+01  0.00000E+00  0.00000E+00
  0.24000E+01  0.00000E+00  0.00000E+00
  0.25000E+01  0.00000E+00  0.00000E+00
  0.26000E+01  0.00000E+00  0.00000E+00
  0.27000E+01  0.00000E+00  0.00000E+00
  0.28000E+01  0.00000E+00  0.00000E+00
  0.29000E+01  0.00000E+00  0.00000E+00
  0.30000E+01  0.00000E+00  0.00000E+00
  0.31000E+01  0.00000E+00  0.00000E+00
  0.32000E+01  0.00000E+00  0.00000E+00
  0.33000E+01  0.00000E+00  0.00000E+00
  0.34000E+01  0.00000E+00  0.00000E+00
  0.35000E+01  0.00000E+00  0.00000E+00
  0.36000E+01  0.00000E+00  0.00000E+00
  0.37000E+01  0.00000E+00  0.00000E+00
  0.38000E+01  0.00000E+00  0.00000E+00
  0.39000E+01  0.00000E+00  0.00000E+00
  0.40000E+01  0.10000E+00  0.00000E+00
  0.40000E+01  0.20000E+00  0.00000E+00
  0.40000E+01  0.30000E+00  0.00000E+00
  0.40000E+01  0.40000E+00  0.00000E+00
  0.40000E+01  0.50000E+00  0.00000E+00
  0.40000E+01  0.60000E+00  0.00000E+00
  0.40000E+01  0.70000E+00  0.00000E+00
  0.40000E+01  0.80000E+00  0.00000E+00
  0.40000E+01  0.90000E+00  0.00000E+00
  0.40000E+01  0.10000E+01  0.00000E+00
  0.40000E+01  0.11000E+01  0.00000E+00
  0.40000E+01  0.12000E+01  0.00000E+00
  0.40000E+01  0.13000E+01  0.00000E+00
  0.40000E+01  0.14000E+01  0.00000E+00
  0.40000E+01  0.15000E+01  0.00000E+00
  0.40000E+01  0.16000E+01  0.00000E+00
  0.40000E+01  0.17000E+01  0.00000E+00
  0.40000E+01  0.18000E+01  0.00000E+00
  0.40000E+01  0.19000E+01  0.00000E+00
  0.39000E+01  0.20000E+01  0.00000E+00
  0.38000E+01  0.20000E+01  0.00000E+00
  0.37000E+01  0.20000E+01  0.00000E+00
  0.36000E+01  0.20000E+01  0.00000E+00
  0.35000E+01  0.20000E+01  0.00000E+00
  0.34000E+01  0.20000E+01  0.00000E+00
  0.33000E+01  0.20000E+01  0.00000E+00
  0.32000E+01  0.20000E+01  0.00000E+00
  0.31000E+01  0.20000E+01  0.00000E+00
  0.30000E+01  0.20000E+01  0.00000E+00
  0.29000E+01  0.20000E+01  0.00000E+00
  0.28000E+01  0.20000E+01  0.00000E+00
  0.27000E+01  0.20000E+01  0.00000E+00
  0.26000E+01  0.20000E+01  0.00000E+00
  0.25000E+01  0.20000E+01  0.00000E+00
  0.24000E+01  0.20000E+01  0.00000E+00
  0.23000E+01  0.20000E+01  0.00000E+00
  0.22000E+01  0.20000E+01  0.00000E+00
  0.21000E+01  0.20000E+01  0.00000E+00
  0.20000E+01  0.20000E+01  0.00000E+00
  0.19000E+01  0.20000E+01  0.00000E+00
  0.18000E+01  0.20000E+01  0.00000E+00
  0.17000E+01  0.20000E+01  0.00000E+00
  0.16000E+01  0.20000E+01  0.00000E+00
  0.15000E+01  0.20000E+01  0.00000E+00
  0.14000E+01  0.20000E+01  0.00000E+00
  0.13000E+01  0.20000E+01  0.00000E+00
  0.12000E+01  0.20000E+01  0.00000E+00
  0.11000E+01  0.20000E+01  0.00000E+00
  0.10000E+01  0.20000E+01  0.00000E+00
  0.90000E+00  0.20000E+01  0.00000E+00
  0.80000E+00  0.20000E+01  0.00000E+00
  0.70000E+00  0.20000E+01  0.00000E+00
  0.60000E+00  0.20000E+01  0.00000E+00
  0.50000E+00  0.20000E+01  0.00000E+00
  0.40000E+00  0.20000E+01  0.00000E+00
  0.30000E+00  0.20000E+01  0.00000E+00
  0.20000E+00  0.20000E+01  0.00000E+00
  0.10000E+00  0.20000E+01  0.00000E+00
  0.00000E+00  0.19000E+01  0.00000E+00
  0.00000E+00  0.18000E+01  0.00000E+00
  0.00000E+00  0.17000E+01  0.00000E+00
  0.00000E+00  0.16000E+01  0.00000E+00
  0.00000E+00  0.15000E+01  0.00000E+00
  0.00000E+00  0.14000E+01  0.00000E+00
  0.00000E+00  0.13000E+01  0.00000E+00
  0.00000E+00  0.12000E+01  0.00000E+00
  0.00000E+00  0.11000E+01  0.00000E+00
  0.00000E+00  0.10000E+01  0.00000E+00
  0.00000E+00  0.90000E+00  0.00000E+00
  0.00000E+00  0.80000E+00  0.00000E+00
  0.00000E+00  0.70000E+00  0.00000E+00
  0.00000E+00  0.60000E+00  0.00000E+00
  0.00000E+00  0.50000E+00  0.00000E+00
  0.00000E+00  0.40000E+00  0.00000E+00
  0.00000E+00  0.30000E+00  0.00000E+00
  0.00000E+00  0.20000E+00  0.00000E+00
  0.00000E+00  0.10000E+00  0.00000E+00
  0.11002E+01  0.11464E+01  0.00000E+00
  0.10771E+01  0.11538E+01  0.00000E+00
  0.10540E+01  0.11613E+01  0.00000E+00
  0.10309E+01  0.11688E+01  0.00000E+00
  0.10078E+01  0.11762E+01  0.00000E+00
  0.98467E+00  0.11837E+01  0.00000E+00
  0.96156E+00  0.11912E+01  0.00000E+00
  0.93844E+00  0.11986E+01  0.00000E+00
  0.91533E+00  0.12061E+01  0.00000E+00
  0.89222E+00  0.12136E+01  0.00000E+00
  0.86911E+00  0.12210E+01  0.00000E+00
  0.84600E+00  0.12285E+01  0.00000E+00
  0.82289E+00  0.12360E+01  0.00000E+00
  0.79978E+00  0.12435E+01  0.00000E+00
  0.79978E+00  0.12584E+01  0.00000E+00
  0.82289E+00  0.12659E+01  0.00000E+00
  0.84600E+00  0.12733E+01  0.00000E+00
  0.86911E+00  0.12808E+01  0.00000E+00
  0.89222E+00  0.12883E+01  0.00000E+00
  0.91533E+00  0.12957E+01  0.00000E+00
  0.93844E+00  0.13032E+01  0.00000E+00
  0.96156E+00  0.13107E+01  0.00000E+00
  0.98467E+00  0.13181E+01  0.00000E+00
  0.10078E+01  0.13256E+01  0.00000E+00
  0.10309E+01  0.13331E+01  0.00000E+00
  0.10540E+01  0.13406E+01  0.00000E+00
  0.10771E+01  0.13480E+01  0.00000E+00
  0.11002E+01  0.13555E+01  0.00000E+00
  0.11233E+01  0.13381E+01  0.00000E+00
  0.11233E+01  0.13132E+01  0.00000E+00
  0.11233E+01  0.12883E+01  0.00000E+00
  0.11233E+01  0.12634E+01  0.00000E+00
  0.11233E+01  0.12385E+01  0.00000E+00
  0.11233E+01  0.12136E+01  0.00000E+00
  0.11233E+01  0.11887E+01  0.00000E+00
  0.11233E+01  0.11638E+01  0.00000E+00
  0.72596E+00  0.81601E+00  0.00000E+00
  0.72318E+00  0.75914E+00  0.00000E+00
  0.64254E+00  0.73252E+00  0.00000E+00
  0.63842E+00  0.78711E+00  0.00000E+00
  0.63702E+00  0.84537E+00  0.00000E+00
  0.63842E+00  0.90363E+00  0.00000E+00
  0.64254E+00  0.95822E+00  0.00000E+00
  0.72318E+00  0.93160E+00  0.00000E+00
  0.72596E+00  0.87473E+00  0.00000E+00
  0.74623E+00  0.70374E+00  0.00000E+00
  0.11476E+01  0.11795E+01  0.00000E+00
  0.11428E+01  0.13264E+01  0.00000E+00
  0.20501E+01  0.84770E-01  0.00000E+00
  0.20513E+01  0.19161E+01  0.00000E+00
  0.75086E+00  0.83082E+00  0.00000E+00
  0.10802E+01  0.11281E+01  0.00000E+00
  0.29510E+01  0.19171E+01  0.00000E+00
  0.25540E+01  0.78210E-01  0.00000E+00
  0.24497E+01  0.19139E+01  0.00000E+00
  0.29535E+01  0.84730E-01  0.00000E+00
  0.16545E+01  0.96330E-01  0.00000E+00
  0.39091E+01  0.10592E+01  0.00000E+00
  0.98745E+00  0.11609E+01  0.00000E+00
  0.71788E+00  0.62645E+00  0.00000E+00
  0.74597E+00  0.94716E+00  0.00000E+00
  0.80605E+00  0.12789E+01  0.00000E+00
  0.92000E+00  0.13196E+01  0.00000E+00
  0.10129E+01  0.13491E+01  0.00000E+00
  0.16502E+01  0.19155E+01  0.00000E+00
  0.12478E+01  0.82260E-01  0.00000E+00
  0.63816E+00  0.63969E+00  0.00000E+00
  0.61877E+00  0.74255E+00  0.00000E+00
  0.61437E+00  0.82908E+00  0.00000E+00
  0.63522E+00  0.10499E+01  0.00000E+00
  0.61620E+00  0.95001E+00  0.00000E+00
  0.33500E+01  0.81140E-01  0.00000E+00
  0.33444E+01  0.19176E+01  0.00000E+00
  0.89845E+00  0.11909E+01  0.00000E+00
  0.93200E-01  0.15508E+01  0.00000E+00
  0.69847E+00  0.10839E+01  0.00000E+00
  0.68876E+00  0.10934E+01  0.00000E+00
  0.39109E+01  0.63916E+00  0.00000E+00
  0.70286E+00  0.10972E+01  0.00000E+00
  0.69242E+00  0.11076E+01  0.00000E+00
  0.39066E+01  0.13469E+01  0.00000E+00
  0.54882E+00  0.19235E+01  0.00000E+00
  0.11450E+01  0.12519E+01  0.00000E+00
  0.10822E+01  0.13717E+01  0.00000E+00
  0.82801E+00  0.12139E+01  0.00000E+00
  0.13560E+01  0.19166E+01  0.00000E+00
  0.94081E+00  0.73780E-01  0.00000E+00
  0.70738E+00  0.11117E+01  0.00000E+00
  0.69616E+00  0.11233E+01  0.00000E+00
  0.67954E+00  0.11181E+01  0.00000E+00
  0.68347E+00  0.11365E+01  0.00000E+00
  0.66340E+00  0.11298E+01  0.00000E+00
  0.66907E+00  0.11513E+01  0.00000E+00
  0.64512E+00  0.11441E+01  0.00000E+00
  0.74001E+00  0.10310E+01  0.00000E+00
  0.44749E+00  0.82430E-01  0.00000E+00
  0.67511E+00  0.60138E+00  0.00000E+00
  0.67440E-01  0.43983E+00  0.00000E+00
  0.85004E+00  0.19236E+01  0.00000E+00
[...]
 POINT_DATA         2061
  
 SCALARS WL      float 1
 LOOKUP_TABLE default
  0.38617E-01
 -0.21328E-01
 -0.13511E+00
  0.32663E-01
 -0.43786E-01
  0.34330E-01
 -0.50960E+01
 -0.55437E-01
 -0.53146E-01
 -0.52244E-01
 -0.53510E-01
 -0.55180E-01
 -0.56329E-01
 -0.50034E-01
 -0.21853E-01
  0.15135E-01
  0.40242E-01
  0.50407E-01
  0.56445E-01
  0.59145E-01
  0.59081E-01
  0.57172E-01
  0.52020E-01
  0.43081E-01
  0.20686E-01
 -0.22965E-01
 -0.45339E-01
 -0.47480E-01
 -0.47743E-01
 -0.48793E-01
 -0.51127E-01
 -0.54433E-01
  0.38286E-01
  0.37290E-01
  0.35478E-01
  0.32716E-01
  0.28832E-01
  0.23288E-01
  0.15842E-01
  0.77383E-02
 -0.12976E-02
 -0.10418E-01
 -0.19241E-01
 -0.26756E-01
 -0.32383E-01
 -0.34430E-01
 -0.30424E-01
 -0.20910E-01
 -0.13100E-01
 -0.10734E-01
 -0.10443E-01
 -0.95634E-02
 -0.74165E-02
 -0.64477E-02
 -0.12431E+00
 -0.10583E+01
 -0.12030E+01
 -0.61019E+00
 -0.21484E+00
 -0.27290E+00
 -0.80370E+00
 -0.86376E+00
 -0.33459E+00
 -0.26548E+00
 -0.37299E+00
 -0.19136E+00
 -0.17238E+00
 -0.12303E+00
 -0.86338E-01
 -0.58863E-01
 -0.35268E-01
  0.00000E+00
  0.00000E+00
  0.00000E+00
  0.00000E+00
  0.00000E+00
  0.00000E+00
  0.00000E+00
  0.00000E+00
  0.00000E+00
  0.00000E+00
  0.00000E+00
  0.00000E+00
  0.00000E+00
  0.00000E+00
  0.00000E+00
  0.00000E+00
  0.00000E+00
  0.00000E+00
  0.00000E+00
 -0.26326E+00
 -0.44898E+00
 -0.52039E+00
 -0.47126E+00
 -0.35743E+00
 -0.35877E+00
 -0.38456E+00
 -0.36088E+00
 -0.10961E+01
 -0.11157E+01
 -0.10057E+01
 -0.87297E+00
 -0.84826E+00
 -0.21874E+01
 -0.18812E+01
 -0.33985E+00
 -0.93624E+00
 -0.90938E+00
 -0.27094E+00
 -0.26045E+00
 -0.24389E+00
 -0.26208E+00
 -0.26626E+00
 -0.26926E+00
 -0.26659E+00
 -0.26202E+00
 -0.29057E+00
 -0.43301E+00
 -0.48152E+00
 -0.50538E+00
 -0.90063E+00
 -0.23503E+00
  0.16553E-01
  0.23102E-01
  0.25716E-01
  0.27842E-01
  0.29570E-01
  0.30985E-01
  0.32048E-01
  0.32918E-01
  0.33465E-01
  0.34308E-01
  0.35422E-01
  0.36879E-01
  0.38482E-01
  0.40115E-01
  0.42095E-01
  0.43615E-01
  0.44915E-01
  0.45637E-01
  0.45729E-01
  0.45222E-01
  0.44247E-01
  0.42914E-01
  0.41619E-01
  0.40449E-01
  0.39478E-01
  0.38907E-01
 -0.49430E-01
 -0.56404E-01
 -0.61803E-01
 -0.61899E-01
 -0.59576E-01
 -0.54245E-01
 -0.49417E-01
 -0.39938E-01
 -0.30470E-01
 -0.17761E-01
 -0.62233E-02
  0.38200E-02
  0.17587E-01
  0.30761E-01
  0.29613E-01
  0.24723E-01
  0.20892E-01
  0.18876E-01
  0.16193E-01
  0.13803E-01
  0.11398E-01
  0.82131E-02
  0.56105E-02
  0.23151E-02
 -0.30356E-02
 -0.30715E-01
 -0.30851E+00
 -0.86118E+01
 -0.29131E+00
 -0.89466E-01
 -0.63206E-01
 -0.60644E-01
 -0.57141E-01
 -0.52816E-01
 -0.47984E-01
 -0.44369E-01
 -0.54407E-01
 -0.52205E-01
  0.54149E-01
  0.58182E-01
  0.59392E-01
  0.58382E-01
  0.55343E-01
 -0.52771E-01
 -0.55487E-01
 -0.52777E-01
 -0.46455E-01
 -0.18606E+00
 -0.85242E-02
 -0.33632E+00
 -0.55114E-01
 -0.55162E-01
 -0.42641E+00
 -0.12678E+01
 -0.11243E+01
 -0.51550E+00
 -0.16188E-01
 -0.86527E+00
 -0.56987E-01
 -0.55610E-01
 -0.51961E-01
  0.26293E-01
  0.12997E-01
 -0.98297E-05
 -0.31122E+00
 -0.30140E-01
  0.31283E-01
  0.55283E-01
  0.59205E-01
  0.37412E-01
  0.56145E-01
 -0.34697E+00
 -0.34261E+00
 -0.25178E-01
  0.35611E-01
 -0.47189E-01
 -0.40626E-01
 -0.64605E+00
 -0.43980E-01
 -0.30007E-01
 -0.34575E+01
  0.24588E-01
 -0.60059E-01
 -0.96016E+01
  0.87072E-02
 -0.35598E+00
 -0.55644E-02
 -0.35122E-01
 -0.19389E-01
 -0.10089E-01
 -0.35714E-02
  0.68137E-02
  0.89929E-02
  0.18065E-01
 -0.47989E-01
  0.31011E-01
 -0.30779E-01
  0.42013E-01
 -0.52192E+00
  0.41095E-01
 -0.24273E-01
  0.45659E-01
 -0.10638E+00
 -0.51952E+00
 -0.37834E-01
 -0.26183E-01
 -0.38645E-01
 -0.52933E-01
 -0.25491E-01
 -0.36647E-01
 -0.13377E-01
  0.58694E-01
 -0.55211E-01
 -0.39017E+00
 -0.75879E-01
  0.11018E-01
 -0.41459E+00
  0.45460E-01
 -0.36637E+00
  0.28893E-01
 -0.33238E-01
 -0.10477E-01
 -0.83916E-01
 -0.14999E+01
 -0.11870E+01
 -0.24565E+00
 -0.30502E+00
 -0.49935E+00
 -0.53848E+00
 -0.45719E-01
 -0.62765E-01
  0.19920E-01
  0.69852E-02
  0.39769E-01
 -0.11264E-01
 -0.14313E-02
 -0.47345E-01
  0.15225E-02
 -0.79596E-02
  0.33484E-01
  0.96282E-02
  0.67804E-02
  0.18220E-01
  0.24800E-01
  0.24084E-01
  0.29132E-01
  0.27980E-01
  0.32227E-01
  0.30560E-01
  0.33884E-01
  0.32248E-01
  0.36172E-01
  0.29445E-01
  0.30969E-01
  0.28663E-01
  0.29864E-01
  0.27869E-01
  0.28930E-01
  0.26935E-01
  0.32251E-01
  0.36748E-01
  0.39443E-01
  0.27872E-01
  0.25721E-01
  0.26588E-01
  0.28724E-01
  0.24505E-01
  0.39166E-01
  0.41865E-01
  0.23492E-01
  0.22220E-01
  0.21061E-01
  0.19611E-01
  0.18184E-01
  0.16665E-01
  0.14779E-01
  0.13033E-01
  0.72176E-02
  0.36012E-04
 -0.99493E-01
 -0.22314E+00
 -0.29039E+01
  0.21009E-01
  0.27299E-01
  0.29392E-01
 -0.86830E+00
 -0.17364E+01
  0.41035E-01
  0.43392E-01
  0.44852E-01
  0.45693E-01
  0.47656E-01
  0.47764E-01
  0.49930E-01
  0.49286E-01
  0.51813E-01
  0.50247E-01
  0.52217E-01
 -0.12975E+01
 -0.19686E+01
 -0.22569E+01
 -0.31746E+01
 -0.15251E+01
 -0.39545E+01
 -0.26625E+01
 -0.33255E+01
 -0.34907E+01
 -0.15852E+01
 -0.23365E+01
 -0.13742E+01
 -0.13508E+01
 -0.94114E+00
 -0.11640E+01
 -0.16137E+01
 -0.91031E+00
 -0.84570E+00
 -0.25148E+00
 -0.23729E+00
 -0.18447E+00
 -0.21564E+00
 -0.22707E+00
 -0.30000E+00
 -0.34336E+00
 -0.31155E+00
 -0.31130E+00
 -0.28235E+00
 -0.32229E+00
 -0.27712E+00
 -0.33708E+00
 -0.31594E+00
 -0.10794E+01
 -0.53146E+00
 -0.32130E+00
 -0.73704E+00
 -0.33531E+00
 -0.11145E+01
 -0.58838E+00
 -0.43056E+00
 -0.10465E+01
 -0.41055E+00
 -0.21435E+00
 -0.67578E+00
 -0.33406E+00
 -0.37226E+00
 -0.14557E+01
 -0.40753E+00
 -0.40759E+00
 -0.44933E+00
 -0.38688E+00
 -0.37401E+00
 -0.36699E+00
 -0.28106E+00
 -0.35522E+00
 -0.34228E+00
 -0.68678E+00
 -0.34316E+00
 -0.14602E+01
 -0.65116E+00
 -0.37627E+00
 -0.11945E+01
 -0.43781E+00
 -0.54001E+00
 -0.46351E+00
 -0.39340E+00
 -0.35528E+00
 -0.57527E+00
 -0.47909E+00
 -0.30030E+00
 -0.45154E+00
 -0.84058E+00
 -0.10822E+01
 -0.12635E+01
 -0.78022E+00
 -0.35071E+00
 -0.11198E+01
 -0.84924E+00
 -0.82097E+00
 -0.95730E+00
 -0.69284E+00
 -0.24876E+00
 -0.37517E+00
 -0.97209E+00
 -0.52286E+00
 -0.46123E+00
 -0.47245E+00
 -0.83708E+00
 -0.26796E+00
 -0.28664E+00
 -0.45986E+00
 -0.47169E+00
 -0.35399E+00
 -0.47426E+00
 -0.49873E+00
 -0.46893E+00
 -0.28907E+00
 -0.88615E+00
 -0.14140E+01
 -0.76194E+00
 -0.59383E+00
 -0.38343E+00
 -0.10526E+01
 -0.27658E+00
 -0.21061E+01
 -0.41471E+00
 -0.79303E+00
 -0.67271E+00
 -0.33207E+00
 -0.32477E+00
 -0.76992E+00
 -0.38357E+00
 -0.13251E+01
  0.23950E-01
  0.50436E-01
  0.51947E-01
  0.49995E-01
  0.50958E-01
  0.48936E-01
  0.49108E-01
  0.47381E-01
  0.46992E-01
  0.48640E-01
  0.45901E-01
  0.44850E-01
  0.43152E-01
  0.42691E-01
  0.40281E-01
  0.40713E-01
  0.38187E-01
  0.36689E-01
  0.34744E-01
  0.32256E-01
  0.30754E-01
  0.26978E-01
  0.28577E-01
  0.21369E-01
  0.21551E-01
  0.14659E-01
  0.36387E-01
  0.13459E-01
  0.55562E-02
  0.83052E-02
 -0.12201E-02
 -0.63875E-02
 -0.13243E-01
 -0.45750E-01
 -0.25309E-01
 -0.36768E-01
 -0.58755E-02
 -0.17270E-01
 -0.26848E-01
 -0.28404E-01
 -0.40167E-01
 -0.36889E-01
 -0.50364E-01
 -0.43038E-01
 -0.49903E-01
 -0.42906E-01
 -0.47136E-01
 -0.40735E-01
 -0.45282E-01
 -0.39539E-01
 -0.45535E-01
 -0.41634E-01
 -0.49392E-01
 -0.46202E-01
 -0.54826E-01
 -0.53886E-01
 -0.59754E-01
 -0.55122E-01
 -0.59939E-01
 -0.62993E-01
 -0.51292E-01
 -0.36137E-01
 -0.57869E-01
 -0.45416E-01
 -0.53062E-01
 -0.40014E-01
 -0.58412E-01
 -0.11850E+00
 -0.33483E-01
 -0.16751E+00
 -0.37759E-01
 -0.48448E+00
 -0.39257E+00
 -0.64194E+00
 -0.40098E+00
 -0.50911E-01
 -0.57467E+00
 -0.47027E+00
 -0.57137E-01
 -0.52867E+00
 -0.47456E+00
 -0.20237E-01
 -0.69923E+00
 -0.61717E-01
 -0.62714E-01
 -0.61730E-01
 -0.60317E-01
 -0.59934E-01
 -0.54744E-01
 -0.56356E-01
 -0.45634E-01
 -0.52643E-01
 -0.42494E-01
 -0.55385E-01
 -0.60051E-01
 -0.57378E-01
 -0.60887E-01
 -0.59790E-01
 -0.61379E-01
 -0.61472E-01
 -0.61577E-01
 -0.61481E-01
 -0.61108E-01
 -0.61368E-01
 -0.60813E-01
 -0.60029E-01
 -0.61217E-01
 -0.59660E-01
 -0.58311E-01
 -0.57966E-01
 -0.56178E-01
 -0.56925E-01
 -0.54406E-01
 -0.50148E-01
 -0.53772E-01
 -0.51808E-01
 -0.52369E-01
 -0.55655E-01
 -0.78324E-02
 -0.33216E+00
 -0.31229E+00
 -0.39900E+00
 -0.27958E+00
 -0.29691E+00
 -0.27540E+00
 -0.44250E-01
 -0.34227E-01
 -0.40901E-01
 -0.64954E-02
  0.87973E-02
 -0.59440E-01
 -0.57818E-01
 -0.59274E-01
 -0.31210E+00
 -0.34031E+00
  0.27931E-01
  0.29901E-01
  0.31367E-01
 -0.57591E+00
 -0.28334E+00
  0.44101E-01
 -0.96918E+00
 -0.51474E+00
 -0.13248E+01
 -0.54057E+00
 -0.39100E+00
 -0.25357E+00
 -0.89868E+00
 -0.42716E+00
 -0.37079E+00
  0.25930E-01
 -0.62803E+00
 -0.41505E+00
 -0.61752E+00
 -0.12747E+01
 -0.38785E+00
 -0.46327E+00
 -0.38591E+00
 -0.38492E+00
 -0.46967E+00
 -0.42374E+00
 -0.57257E-01
 -0.61187E-01
 -0.40621E+00
 -0.53752E+00
 -0.38363E+00
 -0.26570E+00
 -0.52647E+00
 -0.57923E+00
 -0.60772E+00
 -0.92909E+00
 -0.32472E+00
 -0.25789E+00
 -0.28596E+00
  0.16759E-01
  0.51759E-02
 -0.53680E-01
  0.44117E-01
 -0.16385E+01
  0.38659E-01
 -0.97258E+00
 -0.13324E+01
 -0.58223E+00
 -0.20305E+01
 -0.36108E+00
 -0.35049E+00
 -0.32755E+00
 -0.40765E+00
 -0.27164E+00
 -0.35655E+00
 -0.32259E+00
 -0.52994E+00
 -0.90154E+00
 -0.55375E+00
  0.40322E-01
  0.38181E-01
 -0.33660E-01
 -0.44942E-01
 -0.26097E+01
 -0.59282E-01
 -0.62101E-01
  0.44129E-01
 -0.59168E-01
 -0.62379E-01
 -0.35483E+00
 -0.56283E+00
 -0.14618E+01
  0.53377E-01
  0.31693E-01
 -0.39093E-01
 -0.13289E+01
 -0.61554E+00
  0.39124E-01
  0.15247E-01
 -0.61242E-01
 -0.61014E-01
 -0.66127E+00
  0.47413E-01
  0.48987E-01
 -0.54169E+00
  0.49996E-01
  0.26385E-01
 -0.67569E+00
 -0.38264E+00
 -0.57721E-01
 -0.58996E-01
  0.28581E-01
  0.26532E-01
 -0.51305E-01
 -0.49267E-01
 -0.50089E-01
 -0.47769E-01
 -0.47415E-01
 -0.43842E-01
  0.81756E-02
  0.20462E-01
 -0.70713E-02
 -0.12455E+01
 -0.83446E+00
 -0.32603E+00
 -0.11908E+01
 -0.62967E+00
 -0.22813E+00
  0.54032E-01
  0.33212E-01
 -0.40633E-01
 -0.54676E-01
 -0.50781E+00
 -0.43169E+00
 -0.32910E-01
 -0.30622E+00
 -0.64531E-01
 -0.70058E-01
 -0.53821E+00
 -0.30231E+00
 -0.14854E+01
 -0.14467E+01
 -0.16532E+01
 -0.50020E+00
 -0.48920E+00
 -0.51021E+00
 -0.54647E+00
 -0.68793E+00
 -0.56675E+00
 -0.71852E+00
 -0.56338E+00
 -0.67198E+00
 -0.74098E+00
 -0.59911E+00
 -0.65859E+00
 -0.59634E+00
 -0.54906E+00
 -0.60331E+00
 -0.53558E+00
 -0.27954E+00
 -0.51727E-01
 -0.67208E-01
 -0.36906E+00
 -0.25105E+00
 -0.65450E-01
 -0.34602E+00
 -0.16581E+01
 -0.69226E+00
 -0.62785E+00
 -0.18200E+01
 -0.54910E+00
 -0.72966E-01
 -0.31742E+00
 -0.27794E+00
 -0.45959E+00
 -0.41760E+00
  0.39612E-01
 -0.64366E-01
 -0.78840E-01
 -0.24699E+00
 -0.39512E+00
 -0.49184E+00
 -0.58274E-01
 -0.57593E-01
 -0.62238E+00
 -0.65977E+00
 -0.93613E+00
 -0.60138E-01
 -0.59551E-01
 -0.60301E-01
 -0.59290E-01
 -0.59723E-01
 -0.58319E-01
 -0.58506E-01
 -0.57406E-01
 -0.40605E-01
 -0.46134E-01
 -0.34302E-01
 -0.10584E+01
 -0.29330E+00
  0.48322E-01
 -0.59787E-01
 -0.63579E-01
 -0.60417E-01
  0.17866E-01
  0.27018E-01
  0.31121E-01
 -0.75702E-01
 -0.12942E+00
 -0.30093E+00
 -0.68150E+00
 -0.77464E+00
 -0.45813E-01
 -0.31832E+00
  0.33336E-01
  0.31929E-01
  0.34898E-01
 -0.41884E+00
 -0.73970E+00
 -0.82557E+00
 -0.56111E+00
 -0.14362E+01
 -0.90255E+00
 -0.68149E+00
 -0.45195E+00
 -0.36884E-01
 -0.13872E+01
 -0.58400E-01
 -0.63396E+00
 -0.40613E+00
 -0.10511E+00
 -0.11237E+00
 -0.60488E+00
 -0.63903E-01
  0.27355E-01
 -0.15509E+01
 -0.57586E-01
 -0.10546E+01
  0.36597E-01
 -0.44670E+00
 -0.83824E+00
 -0.41486E+00
 -0.49064E-01
 -0.51364E-01
 -0.69213E+00
 -0.36105E+00
 -0.31789E+00
 -0.40600E+00
 -0.43297E+00
 -0.25830E+00
 -0.26356E+00
 -0.60050E-01
 -0.49265E+00
 -0.23107E+00
  0.25306E-01
  0.22410E-01
  0.25348E-01
  0.37020E-01
  0.44263E-01
  0.42926E-01
  0.47793E-01
  0.45904E-01
 -0.13973E+00
 -0.45146E-01
 -0.15628E+00
 -0.57416E-01
 -0.57482E-01
 -0.67329E+00
  0.13434E-01
  0.18872E-01
 -0.11865E+00
  0.34711E-01
  0.39708E-01
 -0.48813E+00
 -0.49091E+00
 -0.28235E+00
 -0.46735E+00
 -0.13611E+00
 -0.61003E-01
  0.12911E-01
 -0.53334E-01
 -0.52537E-01
 -0.44756E-01
 -0.60344E-01
 -0.59972E-01
 -0.55893E-01
 -0.10339E+01
 -0.56310E-01
 -0.57632E-01
 -0.81309E+00
 -0.58370E-01
 -0.52712E-01
 -0.62606E-01
 -0.65350E+00
 -0.38261E-01
 -0.15658E+01
 -0.17035E+01
 -0.29462E+00
 -0.54393E+00
 -0.14925E+01
 -0.57184E+00
 -0.57725E-01
  0.32905E-01
 -0.71581E+00
 -0.61605E-01
 -0.27836E+00
 -0.28845E+00
  0.26503E-01
  0.24227E-01
  0.22979E-01
 -0.51369E-01
 -0.62522E+00
 -0.58938E-01
 -0.10437E+01
 -0.30593E+00
 -0.28043E+00
 -0.54795E+00
 -0.84731E+00
 -0.66302E+00
 -0.51573E-01
 -0.43467E-01
 -0.53979E-01
 -0.47777E-01
 -0.55336E-01
 -0.32122E-01
 -0.37550E-01
 -0.30361E+00
  0.44167E-01
  0.33400E-01
  0.32127E-01
 -0.31717E+00
 -0.42763E+00
 -0.64889E+00
 -0.46695E+00
 -0.31234E+00
 -0.67390E+00
 -0.14601E+00
 -0.11717E+01
 -0.10116E+01
 -0.12976E+01
 -0.41435E+00
 -0.29152E+00
 -0.37722E+00
 -0.35406E+00
 -0.74095E+00
 -0.63103E-01
 -0.20574E-01
 -0.21436E+01
 -0.46918E+00
 -0.43480E+00
 -0.96360E+00
 -0.18631E+01
 -0.85423E+00
 -0.56632E+00
 -0.33210E+00
 -0.40733E+00
  0.17578E-02
 -0.49368E-01
 -0.51737E-01
 -0.47421E-01
 -0.49910E-01
 -0.31754E-01
 -0.30169E+00
 -0.55135E+00
 -0.22560E+00
 -0.37171E+00
 -0.10756E+00
 -0.12210E+00
 -0.30883E-01
 -0.28991E-01
 -0.29801E-01
 -0.30062E-01
 -0.28905E-01
 -0.27357E-01
 -0.25292E-01
 -0.29921E-01
 -0.22677E-01
 -0.19442E-01
 -0.23574E-01
 -0.16161E-01
 -0.35502E-01
 -0.94008E-01
 -0.32286E+00
 -0.12635E+00
 -0.37234E+00
 -0.40179E+00
 -0.50904E+00
 -0.32568E+00
 -0.88455E+00
 -0.98387E+00
 -0.10550E+01
 -0.59003E-01
 -0.59894E-01
 -0.57467E-01
 -0.59096E-01
 -0.28586E+00
 -0.60416E-01
 -0.42802E-01
 -0.37600E-01
  0.21463E-01
  0.19426E-01
  0.12127E-01
 -0.55668E+00
 -0.17539E+01
 -0.59812E-01
 -0.29524E-01
 -0.36195E+00
 -0.33737E+00
 -0.35697E+00
 -0.24958E+00
  0.49815E-01
  0.51648E-01
 -0.56918E-01
  0.37674E-01
  0.38853E-01
  0.40733E-01
 -0.45514E+00
 -0.52411E+00
 -0.55544E+00
 -0.63976E+00
 -0.22357E+00
 -0.30857E+00
 -0.28020E-01
  0.39810E-01
  0.46796E-01
 -0.25711E+01
 -0.90727E+00
 -0.36448E+00
  0.30606E-01
  0.36364E-01
  0.29170E-01
  0.27906E-01
  0.31691E-01
 -0.59888E+00
  0.36459E-01
 -0.33381E+00
  0.33418E-01
 -0.38173E+00
 -0.62765E+00
 -0.36953E+00
 -0.16157E+01
 -0.11990E-01
 -0.73840E-02
 -0.56849E+00
 -0.73587E+00
 -0.38271E+00
  0.33037E-02
 -0.14464E+01
 -0.10504E+01
 -0.94882E+00
 -0.11601E+01
 -0.53763E-01
 -0.53954E-01
 -0.27683E+00
 -0.38149E+00
  0.22068E-01
 -0.75024E+00
 -0.45531E+00
 -0.12989E+01
 -0.85832E-01
 -0.15300E+00
  0.78291E-02
 -0.50170E+00
 -0.96390E+00
 -0.83005E+00
 -0.22004E+01
 -0.21746E+01
 -0.25780E+01
 -0.63541E+01
 -0.43138E+01
 -0.48784E+01
 -0.64843E+01
 -0.69895E+01
 -0.38452E+01
 -0.15753E+02
 -0.37803E-01
 -0.39346E+00
 -0.85515E+00
 -0.38998E-01
  0.22549E-01
  0.23228E-01
  0.21652E-01
  0.24068E-01
  0.25517E-01
  0.25099E-01
  0.25328E-01
  0.24979E-01
  0.24329E-01
  0.24877E-01
  0.22936E-01
  0.22618E-01
  0.20600E-01
  0.21188E-01
  0.18759E-01
  0.17630E-01
  0.15875E-01
  0.14336E-01
  0.12694E-01
  0.10874E-01
  0.85624E-02
  0.10750E-01
 -0.18955E-02
 -0.27336E-02
  0.16131E-01
 -0.32027E-01
 -0.91217E-01
 -0.31891E+00
 -0.60671E-01
 -0.64323E-01
 -0.11774E-01
 -0.43152E-01
 -0.33216E-01
 -0.75856E+00
 -0.82509E+00
 -0.19814E+02
 -0.26117E+00
 -0.14009E+02
 -0.54848E-01
  0.29592E-01
 -0.20166E+00
 -0.56034E-01
 -0.56025E-01
  0.32284E-01
  0.37270E-01
  0.24292E-01
 -0.42911E+00
 -0.96131E+00
 -0.30569E+00
 -0.90007E+00
 -0.19712E+01
 -0.92376E+00
 -0.61065E-01
 -0.82447E+00
 -0.43577E+00
 -0.31056E+00
 -0.46098E+00
 -0.18645E+01
 -0.17805E+01
 -0.36381E+00
 -0.19567E+00
 -0.15880E-01
 -0.44096E+00
 -0.46092E-01
 -0.46869E-01
 -0.39258E-02
  0.11895E-02
 -0.27633E-02
  0.62532E-02
  0.19426E-01
 -0.30449E+00
 -0.35844E+00
 -0.35522E+00
 -0.73751E+00
 -0.12918E+01
 -0.15907E-01
 -0.63356E-01
 -0.33846E-01
 -0.35445E-01
  0.26539E-01
 -0.62100E+00
 -0.76455E+00
 -0.60447E-01
 -0.62215E+00
 -0.34327E-01
 -0.50864E-01
 -0.69251E+00
  0.32743E-01
  0.39922E-01
  0.38146E-01
  0.41641E-01
  0.42692E-01
  0.43219E-01
  0.44392E-01
  0.44492E-01
  0.45784E-01
 -0.61330E+00
 -0.12040E+00
 -0.21694E-01
 -0.27437E-01
  0.14473E-01
 -0.44607E+00
 -0.44262E+00
 -0.97561E+00
 -0.43863E+00
 -0.87026E+00
 -0.62704E+00
  0.49935E-01
  0.51274E-01
  0.48454E-01
  0.51917E-01
  0.49286E-01
  0.51757E-01
  0.54204E-01
 -0.56670E+00
 -0.62362E+00
 -0.48894E+00
 -0.71505E+00
  0.27439E-01
 -0.54167E-01
  0.54158E-01
  0.54426E-01
  0.52023E-01
  0.53960E-01
  0.56161E-01
 -0.38737E+00
 -0.47075E+00
 -0.51546E+00
 -0.17351E+00
 -0.34971E+00
 -0.13203E+01
 -0.17399E+01
 -0.14314E-01
 -0.23190E+00
 -0.24712E+00
 -0.74382E+00
 -0.98815E+00
 -0.23144E+00
 -0.70943E+00
  0.52061E-01
 -0.31107E-02
  0.26911E-02
  0.12046E-01
  0.13775E-01
  0.18836E-01
  0.19499E-01
  0.24519E-01
  0.24514E-01
  0.24187E-01
  0.28970E-01
 -0.38927E+00
 -0.12765E+00
 -0.27309E+00
 -0.11088E+00
 -0.46198E+00
 -0.40117E+00
 -0.42689E+00
 -0.45914E-01
 -0.39223E-01
 -0.29094E-01
 -0.51129E-01
  0.53982E-01
  0.56158E-01
  0.55553E-01
  0.57409E-01
  0.56473E-01
  0.55466E-01
  0.57276E-01
  0.58244E-01
  0.54616E-01
  0.56382E-01
  0.52355E-01
  0.57844E-01
  0.57842E-01
 -0.61071E-01
 -0.58603E-01
 -0.51921E-01
  0.17634E-01
 -0.68607E-01
 -0.47483E-01
  0.25539E-01
 -0.52061E-01
 -0.54324E-01
 -0.55882E-01
 -0.55833E-01
 -0.42834E-01
 -0.40393E-01
 -0.50571E-01
 -0.41709E-01
 -0.35430E-01
 -0.51835E-01
 -0.58220E-01
 -0.56374E+00
 -0.97727E+00
 -0.34557E+00
 -0.29672E+00
 -0.98351E+00
  0.19695E-01
 -0.12851E-01
  0.61169E-02
 -0.34099E+00
  0.23054E-01
  0.19718E-01
 -0.40566E+00
 -0.64907E-01
 -0.64492E-01
 -0.13325E-01
  0.24666E-01
  0.12557E-01
 -0.58981E-01
  0.45598E-01
  0.46640E-01
  0.43048E-01
  0.46862E-01
 -0.38998E+00
 -0.18052E+01
 -0.57977E-01
  0.24757E-02
 -0.29534E+00
 -0.41668E+00
  0.39266E-01
  0.37586E-01
 -0.50288E-01
 -0.28785E-01
 -0.31432E-01
 -0.30903E-01
 -0.33914E-01
 -0.29198E-01
 -0.27117E-01
 -0.29778E-01
 -0.17217E+01
 -0.29532E-01
 -0.28912E-01
 -0.58029E+00
 -0.68045E+00
  0.45869E-01
  0.46490E-01
  0.45803E-01
  0.44933E-01
  0.44766E-01
  0.45913E-01
  0.43882E-01
  0.43506E-01
  0.46259E-01
  0.47404E-01
  0.44533E-01
  0.42669E-01
  0.42022E-01
  0.40850E-01
  0.40511E-01
  0.39079E-01
  0.39121E-01
  0.37434E-01
  0.37813E-01
  0.36000E-01
  0.34751E-01
 -0.55778E+01
 -0.16863E+01
 -0.16758E+01
 -0.58121E-01
 -0.60200E-01
 -0.56639E-01
 -0.76386E+00
 -0.10256E+01
 -0.30746E-01
 -0.23549E+00
 -0.55832E-01
 -0.54942E-01
 -0.55097E-01
 -0.39869E+01
 -0.21113E-01
  0.37528E-01
  0.43151E-01
  0.42542E-01
 -0.47170E-01
 -0.51545E-01
 -0.49831E-01
 -0.35096E+00
 -0.39992E+00
 -0.44183E+00
  0.26925E-01
  0.25809E-01
  0.40227E-01
 -0.90462E+00
 -0.56080E+00
 -0.34135E-01
 -0.25566E-01
 -0.52418E-01
 -0.53586E-01
 -0.53461E-01
 -0.54520E-01
  0.26980E-01
 -0.45349E+00
  0.37604E-01
 -0.72907E+00
 -0.26145E-01
 -0.68345E+00
 -0.70507E+00
 -0.54874E-01
 -0.35126E-01
 -0.31727E-01
 -0.34410E-01
  0.34339E-01
  0.61333E-02
  0.15189E-01
 -0.14877E-01
 -0.23429E-01
 -0.11293E-01
  0.33406E-01
  0.34616E-01
 -0.18496E+00
  0.57787E-01
 -0.55381E-01
 -0.48629E-01
 -0.52049E-01
 -0.41490E-01
 -0.28831E-01
  0.28989E-01
  0.34454E-01
 -0.53793E-01
 -0.45016E-01
 -0.71368E-01
 -0.55753E-01
 -0.56109E-01
 -0.58028E+00
 -0.99912E-02
 -0.61934E-01
 -0.60839E-01
  0.30853E-01
  0.32269E-01
  0.34605E-01
  0.34823E-01
 -0.46866E-01
 -0.55925E-01
 -0.59544E-01
 -0.60754E-01
 -0.29716E-01
 -0.18479E-01
 -0.20685E-01
 -0.11981E-01
 -0.82936E-02
  0.21177E-02
 -0.83911E-02
 -0.52842E-01
  0.20021E-01
 -0.90286E+00
 -0.32865E-01
 -0.22633E-01
  0.56471E-01
  0.42816E-01
 -0.66105E-02
 -0.83000E-01
 -0.54822E+00
 -0.11282E+01
 -0.26246E+00
  0.46886E-01
 -0.47388E-01
 -0.15772E+00
 -0.15878E+00
 -0.10858E+00
 -0.13626E+00
 -0.98457E-01
  0.21231E-01
  0.11647E-01
  0.22351E-02
 -0.29159E-02
 -0.22332E+00
 -0.54705E-01
 -0.47441E+00
  0.30442E-01