# vtk DataFile Version 2.0
Unstructured Grid UFVM-ECOMOD
ASCII
DATASET UNSTRUCTURED_GRID
 POINTS         2061  float
  0.00000E+00  0.00000E+00  0.00000E+00
  0.40000E+01  0.00000E+00  0.00000E+00
  0.40000E+01  0.20000E+01  0.00000E+00
  0.00000E+00  0.20000E+01  0.00000E+00
  0.11233E+01  0.11389E+01  0.00000E+00
  0.77667E+00  0.12509E+01  0.00000E+00
  0.11233E+01  0.13630E+01  0.00000E+00
  0.72667E+00  0.84537E+00  0.00000E+00
  0.72525E+00  0.78665E+00  0.00000E+00
  0.72110E+00  0.73162E+00  0.00000E+00
  0.71447E+00  0.68374E+00  0.00000E+00
  0.70578E+00  0.64602E+00  0.00000E+00
  0.69557E+00  0.62082E+00  0.00000E+00
  0.68449E+00  0.60973E+00  0.00000E+00
  0.67323E+00  0.61344E+00  0.00000E+00
  0.66251E+00  0.63173E+00  0.00000E+00
  0.65298E+00  0.66344E+00  0.00000E+00
  0.64526E+00  0.70659E+00  0.00000E+00
  0.63983E+00  0.75845E+00  0.00000E+00
  0.63702E+00  0.81578E+00  0.00000E+00
  0.63702E+00  0.87496E+00  0.00000E+00
  0.63983E+00  0.93229E+00  0.00000E+00
  0.64526E+00  0.98415E+00  0.00000E+00
  0.65298E+00  0.10273E+01  0.00000E+00
  0.66251E+00  0.10590E+01  0.00000E+00
  0.67323E+00  0.10773E+01  0.00000E+00
  0.68449E+00  0.10810E+01  0.00000E+00
  0.69557E+00  0.10699E+01  0.00000E+00
  0.70578E+00  0.10447E+01  0.00000E+00
  0.71447E+00  0.10070E+01  0.00000E+00
  0.72110E+00  0.95912E+00  0.00000E+00
  0.72525E+00  0.90409E+00  0.00000E+00
  0.10000E+00  0.00000E+00  0.00000E+00
  0.20000E+00  0.00000E+00  0.00000E+00
  0.30000E+00  0.00000E+00  0.00000E+00
  0.40000E+00  0.00000E+00  0.00000E+00
  0.50000E+00  0.00000E+00  0.00000E+00
  0.60000E+00  0.00000E+00  0.00000E+00
  0.70000E+00  0.00000E+00  0.00000E+00
  0.80000E+00  0.00000E+00  0.00000E+00
  0.90000E+00  0.00000E+00  0.00000E+00
  0.10000E+01  0.00000E+00  0.00000E+00
  0.11000E+01  0.00000E+00  0.00000E+00
  0.12000E+01  0.00000E+00  0.00000E+00
  0.13000E+01  0.00000E+00  0.00000E+00
  0.14000E+01  0.00000E+00  0.00000E+00
  0.15000E+01  0.00000E+00  0.00000E+00
  0.16000E+01  0.00000E+00  0.00000E+00
  0.17000E+01  0.00000E+00  0.00000E+00
  0.18000E+01  0.00000E+00  0.00000E+00
  0.19000E+01  0.00000E+00  0.00000E+00
  0.20000E+01  0.00000E+00  0.00000E+00
  0.21000E+01  0.00000E+00  0.00000E+00
  0.22000E+01  0.00000E+00  0.00000E+00
  0.23000E+01  0.00000E+00  0.00000E+00
  0.24000E+01  0.00000E+00  0.00000E+00
  0.25000E+01  0.00000E+00  0.00000E+00
  0.26000E+01  0.00000E+00  0.00000E+00
  0.27000E+01  0.00000E+00  0.00000E+00
  0.28000E+01  0.00000E+00  0.00000E+00
  0.29000E+01  0.00000E+00  0.00000E+00
  0.30000E+01  0.00000E+00  0.00000E+00
  0.31000E+01  0.00000E+00  0.00000E+00
  0.32000E+01  0.00000E+00  0.00000E+00
  0.33000E+01  0.00000E+00  0.00000E+00
  0.34000E+01  0.00000E+00  0.00000E+00
  0.35000E+01  0.00000E+00  0.00000E+00
  0.36000E+01  0.00000E+00  0.00000E+00
  0.37000E+01  0.00000E+00  0.00000E+00
  0.38000E+01  0.00000E+00  0.00000E+00
  0.39000E+01  0.00000E+00  0.00000E+00
  0.40000E+01  0.10000E+00  0.00000E+00
  0.40000E+01  0.20000E+00  0.00000E+00
  0.40000E+01  0.30000E+00  0.00000E+00
  0.40000E+01  0.40000E+00  0.00000E+00
  0.40000E+01  0.50000E+00  0.00000E+00
  0.40000E+01  0.60000E+00  0.00000E+00
  0.40000E+01  0.70000E+00  0.00000E+00
  0.40000E+01  0.80000E+00  0.00000E+00
  0.40000E+01  0.90000E+00  0.00000E+00
  0.40000E+01  0.10000E+01  0.00000E+00
  0.40000E+01  0.11000E+01  0.00000E+00
  0.40000E+01  0.12000E+01  0.00000E+00
  0.40000E+01  0.13000E+01  0.00000E+00
  0.40000E+01  0.14000E+01  0.00000E+00
  0.40000E+01  0.15000E+01  0.00000E+00
  0.40000E+01  0.16000E+01  0.00000E+00
  0.40000E+01  0.17000E+01  0.00000E+00
  0.40000E+01  0.18000E+01  0.00000E+00
  0.40000E+01  0.19000E+01  0.00000E+00
  0.39000E+01  0.20000E+01  0.00000E+00
  0.38000E+01  0.20000E+01  0.00000E+00
  0.37000E+01  0.20000E+01  0.00000E+00
  0.36000E+01  0.20000E+01  0.00000E+00
  0.35000E+01  0.20000E+01  0.00000E+00
  0.34000E+01  0.20000E+01  0.00000E+00
  0.33000E+01  0.20000E+01  0.00000E+00
  0.32000E+01  0.20000E+01  0.00000E+00
  0.31000E+01  0.20000E+01  0.00000E+00
  0.30000E+01  0.20000E+01  0.00000E+00
  0.29000E+01  0.20000E+01  0.00000E+00
  0.28000E+01  0.20000E+01  0.00000E+00
  0.27000E+01  0.20000E+01  0.00000E+00
  0.26000E+01  0.20000E+01  0.00000E+00
  0.25000E+01  0.20000E+01  0.00000E+00
  0.24000E+01  0.20000E+01  0.00000E+00
  0.23000E+01  0.20000E+01  0.00000E+00
  0.22000E+01  0.20000E+01  0.00000E+00
  0.21000E+01  0.20000E+01  0.00000E+00
  0.20000E+01  0.20000E+01  0.00000E+00
  0.19000E+01  0.20000E+01  0.00000E+00
  0.18000E+01  0.20000E+01  0.00000E+00
  0.17000E+01  0.20000E+01  0.00000E+00
  0.16000E+01  0.20000E+01  0.00000E+00
  0.15000E+01  0.20000E+01  0.00000E+00
  0.14000E+01  0.20000E+01  0.00000E+00
  0.13000E+01  0.20000E+01  0.00000E+00
  0.12000E+01  0.20000E+01  0.00000E+00
  0.11000E+01  0.20000E+01  0.00000E+00
  0.10000E+01  0.20000E+01  0.00000E+00
  0.90000E+00  0.20000E+01  0.00000E+00
  0.80000E+00  0.20000E+01  0.00000E+00
  0.70000E+00  0.20000E+01  0.00000E+00
  0.60000E+00  0.20000E+01  0.00000E+00
  0.50000E+00  0.20000E+01  0.00000E+00
  0.40000E+00  0.20000E+01  0.00000E+00
  0.30000E+00  0.20000E+01  0.00000E+00
  0.20000E+00  0.20000E+01  0.00000E+00
  0.10000E+00  0.20000E+01  0.00000E+00
  0.00000E+00  0.19000E+01  0.00000E+00
  0.00000E+00  0.18000E+01  0.00000E+00
  0.00000E+00  0.17000E+01  0.00000E+00
  0.00000E+00  0.16000E+01  0.00000E+00
  0.00000E+00  0.15000E+01  0.00000E+00
  0.00000E+00  0.14000E+01  0.00000E+00
  0.00000E+00  0.13000E+01  0.00000E+00
  0.00000E+00  0.12000E+01  0.00000E+00
  0.00000E+00  0.11000E+01  0.00000E+00
  0.00000E+00  0.10000E+01  0.00000E+00
  0.00000E+00  0.90000E+00  0.00000E+00
  0.00000E+00  0.80000E+00  0.00000E+00
  0.00000E+00  0.70000E+00  0.00000E+00
  0.00000E+00  0.60000E+00  0.00000E+00
  0.00000E+00  0.50000E+00  0.00000E+00
  0.00000E+00  0.40000E+00  0.00000E+00
  0.00000E+00  0.30000E+00  0.00000E+00
  0.00000E+00  0.20000E+00  0.00000E+00
  0.00000E+00  0.10000E+00  0.00000E+00
  0.11002E+01  0.11464E+01  0.00000E+00
  0.10771E+01  0.11538E+01  0.00000E+00
  0.10540E+01  0.11613E+01  0.00000E+00
  0.10309E+01  0.11688E+01  0.00000E+00
  0.10078E+01  0.11762E+01  0.00000E+00
  0.98467E+00  0.11837E+01  0.00000E+00
  0.96156E+00  0.11912E+01  0.00000E+00
  0.93844E+00  0.11986E+01  0.00000E+00
  0.91533E+00  0.12061E+01  0.00000E+00
  0.89222E+00  0.12136E+01  0.00000E+00
  0.86911E+00  0.12210E+01  0.00000E+00
  0.84600E+00  0.12285E+01  0.00000E+00
  0.82289E+00  0.12360E+01  0.00000E+00
  0.79978E+00  0.12435E+01  0.00000E+00
  0.79978E+00  0.12584E+01  0.00000E+00
  0.82289E+00  0.12659E+01  0.00000E+00
  0.84600E+00  0.12733E+01  0.00000E+00
  0.86911E+00  0.12808E+01  0.00000E+00
  0.89222E+00  0.12883E+01  0.00000E+00
  0.91533E+00  0.12957E+01  0.00000E+00
  0.93844E+00  0.13032E+01  0.00000E+00
  0.96156E+00  0.13107E+01  0.00000E+00
  0.98467E+00  0.13181E+01  0.00000E+00
  0.10078E+01  0.13256E+01  0.00000E+00
  0.10309E+01  0.13331E+01  0.00000E+00
  0.10540E+01  0.13406E+01  0.00000E+00
  0.10771E+01  0.13480E+01  0.00000E+00
  0.11002E+01  0.13555E+01  0.00000E+00
  0.11233E+01  0.13381E+01  0.00000E+00
  0.11233E+01  0.13132E+01  0.00000E+00
  0.11233E+01  0.12883E+01  0.00000E+00
  0.11233E+01  0.12634E+01  0.00000E+00
  0.11233E+01  0.12385E+01  0.00000E+00
  0.11233E+01  0.12136E+01  0.00000E+00
  0.11233E+01  0.11887E+01  0.00000E+00
  0.11233E+01  0.11638E+01  0.00000E+00
  0.72596E+00  0.81601E+00  0.00000E+00
  0.72318E+00  0.75914E+00  0.00000E+00
  0.64254E+00  0.73252E+00  0.00000E+00
  0.63842E+00  0.78711E+00  0.00000E+00
  0.63702E+00  0.84537E+00  0.00000E+00
  0.63842E+00  0.90363E+00  0.00000E+00
  0.64254E+00  0.95822E+00  0.00000E+00
  0.72318E+00  0.93160E+00  0.00000E+00
  0.72596E+00  0.87473E+00  0.00000E+00
  0.74623E+00  0.70374E+00  0.00000E+00
  0.11476E+01  0.11795E+01  0.00000E+00
  0.11428E+01  0.13264E+01  0.00000E+00
  0.20501E+01  0.84770E-01  0.00000E+00
  0.20513E+01  0.19161E+01  0.00000E+00
  0.75086E+00  0.83082E+00  0.00000E+00
  0.10802E+01  0.11281E+01  0.00000E+00
  0.29510E+01  0.19171E+01  0.00000E+00
  0.25540E+01  0.78210E-01  0.00000E+00
  0.24497E+01  0.19139E+01  0.00000E+00
  0.29535E+01  0.84730E-01  0.00000E+00
  0.16545E+01  0.96330E-01  0.00000E+00
  0.39091E+01  0.10592E+01  0.00000E+00
  0.98745E+00  0.11609E+01  0.00000E+00
  0.71788E+00  0.62645E+00  0.00000E+00
  0.74597E+00  0.94716E+00  0.00000E+00
  0.80605E+00  0.12789E+01  0.00000E+00
  0.92000E+00  0.13196E+01  0.00000E+00
  0.10129E+01  0.13491E+01  0.00000E+00
  0.16502E+01  0.19155E+01  0.00000E+00
  0.12478E+01  0.82260E-01  0.00000E+00
  0.63816E+00  0.63969E+00  0.00000E+00
  0.61877E+00  0.74255E+00  0.00000E+00
  0.61437E+00  0.82908E+00  0.00000E+00
  0.63522E+00  0.10499E+01  0.00000E+00
  0.61620E+00  0.95001E+00  0.00000E+00
  0.33500E+01  0.81140E-01  0.00000E+00
  0.33444E+01  0.19176E+01  0.00000E+00
  0.89845E+00  0.11909E+01  0.00000E+00
  0.93200E-01  0.15508E+01  0.00000E+00
  0.69847E+00  0.10839E+01  0.00000E+00
  0.68876E+00  0.10934E+01  0.00000E+00
  0.39109E+01  0.63916E+00  0.00000E+00
  0.70286E+00  0.10972E+01  0.00000E+00
  0.69242E+00  0.11076E+01  0.00000E+00
  0.39066E+01  0.13469E+01  0.00000E+00
  0.54882E+00  0.19235E+01  0.00000E+00
  0.11450E+01  0.12519E+01  0.00000E+00
  0.10822E+01  0.13717E+01  0.00000E+00
  0.82801E+00  0.12139E+01  0.00000E+00
  0.13560E+01  0.19166E+01  0.00000E+00
  0.94081E+00  0.73780E-01  0.00000E+00
  0.70738E+00  0.11117E+01  0.00000E+00
  0.69616E+00  0.11233E+01  0.00000E+00
  0.67954E+00  0.11181E+01  0.00000E+00
  0.68347E+00  0.11365E+01  0.00000E+00
  0.66340E+00  0.11298E+01  0.00000E+00
  0.66907E+00  0.11513E+01  0.00000E+00
  0.64512E+00  0.11441E+01  0.00000E+00
  0.74001E+00  0.10310E+01  0.00000E+00
  0.44749E+00  0.82430E-01  0.00000E+00
  0.67511E+00  0.60138E+00  0.00000E+00
  0.67440E-01  0.43983E+00  0.00000E+00
  0.85004E+00  0.19236E+01  0.00000E+00
[...]
 POINT_DATA         2061
  
 SCALARS WL      float 1
 LOOKUP_TABLE default
  0.38605E-01
  0.44530E-04
 -0.22985E+00
  0.34473E-01
 -0.44040E-01
  0.34705E-01
 -0.49709E-01
 -0.57005E-01
 -0.53067E-01
 -0.49132E-01
 -0.48032E-01
 -0.48839E-01
 -0.50275E-01
 -0.45161E-01
 -0.19508E-01
  0.16021E-01
  0.40695E-01
  0.50775E-01
  0.56817E-01
  0.59570E-01
  0.59562E-01
  0.57674E-01
  0.52523E-01
  0.43506E-01
  0.20686E-01
 -0.24431E-01
 -0.48653E-01
 -0.51521E-01
 -0.51633E-01
 -0.52365E-01
 -0.54338E-01
 -0.57025E-01
  0.38365E-01
  0.37561E-01
  0.35973E-01
  0.33456E-01
  0.29817E-01
  0.24499E-01
  0.17285E-01
  0.93921E-02
  0.45134E-03
 -0.87195E-02
 -0.17729E-01
 -0.25475E-01
 -0.31171E-01
 -0.32699E-01
 -0.27793E-01
 -0.17632E-01
 -0.91812E-02
 -0.63094E-02
 -0.63798E-02
 -0.66518E-02
 -0.59374E-02
 -0.41989E-02
 -0.15488E-02
  0.15376E-02
  0.58220E-02
  0.99850E-02
  0.14015E-01
  0.16173E-01
  0.15505E-01
 -0.20139E-01
 -0.67349E-01
 -0.13251E+00
 -0.14054E+00
 -0.60232E-01
 -0.20452E-01
 -0.46644E-02
 -0.55998E-03
  0.10214E-02
  0.89605E-03
  0.00000E+00
  0.00000E+00
  0.00000E+00
  0.00000E+00
  0.00000E+00
  0.00000E+00
  0.00000E+00
  0.00000E+00
  0.00000E+00
  0.00000E+00
  0.00000E+00
  0.00000E+00
  0.00000E+00
  0.00000E+00
  0.00000E+00
  0.00000E+00
  0.00000E+00
  0.00000E+00
  0.00000E+00
 -0.26305E+00
 -0.44898E+00
 -0.52039E+00
 -0.47126E+00
 -0.35743E+00
 -0.35877E+00
 -0.38456E+00
 -0.36088E+00
 -0.10961E+01
 -0.11157E+01
 -0.10057E+01
 -0.87297E+00
 -0.84827E+00
 -0.21875E+01
 -0.18813E+01
 -0.33985E+00
 -0.93625E+00
 -0.90938E+00
 -0.27094E+00
 -0.26045E+00
 -0.24389E+00
 -0.26207E+00
 -0.26625E+00
 -0.26926E+00
 -0.25759E+00
 -0.16627E+00
 -0.16772E-01
 -0.72840E-02
  0.14029E-03
  0.66630E-02
  0.12174E-01
  0.16783E-01
  0.20777E-01
  0.23949E-01
  0.26717E-01
  0.29021E-01
  0.30933E-01
  0.32530E-01
  0.33762E-01
  0.34716E-01
  0.35201E-01
  0.35948E-01
  0.36935E-01
  0.38238E-01
  0.39684E-01
  0.41155E-01
  0.42978E-01
  0.44376E-01
  0.45566E-01
  0.46194E-01
  0.46203E-01
  0.45615E-01
  0.44560E-01
  0.43143E-01
  0.41763E-01
  0.40527E-01
  0.39503E-01
  0.38900E-01
 -0.51557E-01
 -0.59626E-01
 -0.65247E-01
 -0.65081E-01
 -0.62413E-01
 -0.56828E-01
 -0.51797E-01
 -0.42073E-01
 -0.32378E-01
 -0.19428E-01
 -0.76869E-02
  0.25808E-02
  0.16654E-01
  0.30109E-01
  0.30918E-01
  0.25922E-01
  0.22066E-01
  0.20049E-01
  0.17368E-01
  0.14977E-01
  0.12562E-01
  0.93645E-02
  0.67395E-02
  0.35581E-02
  0.59936E-04
 -0.46866E-02
 -0.11735E-01
 -0.20749E-01
 -0.67290E-01
 -0.66917E-01
 -0.65575E-01
 -0.62287E-01
 -0.57528E-01
 -0.52896E-01
 -0.48484E-01
 -0.44925E-01
 -0.55302E-01
 -0.50786E-01
  0.54510E-01
  0.58576E-01
  0.59848E-01
  0.58876E-01
  0.55853E-01
 -0.55695E-01
 -0.57633E-01
 -0.48311E-01
 -0.46975E-01
 -0.67186E-01
 -0.63050E-02
 -0.33632E+00
 -0.56368E-01
 -0.58283E-01
 -0.42641E+00
  0.81908E-02
 -0.11243E+01
 -0.69507E-02
 -0.12941E-01
 -0.83804E+00
 -0.59690E-01
 -0.49180E-01
 -0.55001E-01
  0.27474E-01
  0.14165E-01
  0.21869E-02
 -0.31122E+00
 -0.29154E-01
  0.31854E-01
  0.55649E-01
  0.59642E-01
  0.37772E-01
  0.56658E-01
 -0.20497E+00
 -0.34261E+00
 -0.26986E-01
  0.36996E-01
 -0.51159E-01
 -0.43685E-01
 -0.15265E+00
 -0.47464E-01
 -0.32263E-01
 -0.33323E+01
  0.25504E-01
 -0.61004E-01
 -0.15175E-01
  0.75937E-02
 -0.57981E-01
 -0.38039E-02
 -0.37796E-01
 -0.21022E-01
 -0.11211E-01
 -0.44182E-02
  0.64114E-02
  0.86674E-02
  0.18069E-01
 -0.51754E-01
  0.31852E-01
 -0.27741E-01
  0.42204E-01
  0.14725E-01
  0.42027E-01
 -0.26236E-01
  0.46103E-01
 -0.90010E-02
 -0.51952E+00
 -0.40769E-01
 -0.28315E-01
 -0.41746E-01
 -0.52274E-01
 -0.27617E-01
 -0.39561E-01
 -0.14868E-01
  0.59181E-01
 -0.57569E-01
 -0.40771E+00
 -0.22471E-01
  0.12567E-01
 -0.40460E-02
  0.46062E-01
 -0.36638E+00
  0.30158E-01
 -0.31387E-01
 -0.61900E-02
 -0.24251E-02
 -0.14999E+01
 -0.11870E+01
  0.14587E-01
 -0.20442E+00
 -0.49935E+00
 -0.60730E+00
 -0.47999E-01
 -0.66109E-01
  0.21081E-01
  0.81324E-02
  0.39884E-01
 -0.12715E-01
 -0.24482E-02
 -0.51325E-01
  0.51963E-03
 -0.93210E-02
  0.35108E-01
  0.89888E-02
  0.61683E-02
  0.18246E-01
  0.25038E-01
  0.24333E-01
  0.29525E-01
  0.28383E-01
  0.32737E-01
  0.31083E-01
  0.34484E-01
  0.32866E-01
  0.36763E-01
  0.29996E-01
  0.31614E-01
  0.29259E-01
  0.30542E-01
  0.28517E-01
  0.29645E-01
  0.27634E-01
  0.32985E-01
  0.37408E-01
  0.40088E-01
  0.28623E-01
  0.26462E-01
  0.27365E-01
  0.29536E-01
  0.25274E-01
  0.39874E-01
  0.42546E-01
  0.24261E-01
  0.23012E-01
  0.21890E-01
  0.20451E-01
  0.19088E-01
  0.17577E-01
  0.15790E-01
  0.14261E-01
  0.11489E-01
  0.10379E-01
  0.71124E-02
  0.60632E-02
  0.19635E-02
  0.21806E-01
  0.28126E-01
  0.30277E-01
  0.11295E-02
 -0.45638E-02
  0.41773E-01
  0.44092E-01
  0.45504E-01
  0.46357E-01
  0.48278E-01
  0.48390E-01
  0.50518E-01
  0.49871E-01
  0.52359E-01
  0.50791E-01
  0.52721E-01
 -0.43155E-02
 -0.11046E-01
 -0.99139E-02
 -0.17390E-01
 -0.19905E-01
 -0.26750E-01
 -0.23300E-01
 -0.32472E-01
 -0.37933E-01
 -0.42284E-01
 -0.50291E-01
 -0.50588E-01
 -0.60888E-01
 -0.52840E-01
 -0.63420E-01
 -0.42710E-01
 -0.53332E-01
 -0.24949E-01
 -0.39231E-01
 -0.13927E-01
 -0.29104E-01
 -0.10681E-01
 -0.24720E-01
 -0.13416E-01
 -0.28622E-01
 -0.21348E-01
 -0.34785E-01
 -0.27663E-01
 -0.34672E-01
 -0.29592E-01
 -0.31373E-01
 -0.29060E-01
 -0.37241E-01
 -0.28394E-01
 -0.27833E-01
 -0.27695E-01
 -0.29741E-01
 -0.30747E-01
 -0.44146E-01
 -0.88984E-02
 -0.57179E-01
 -0.17350E+00
 -0.27776E-01
 -0.23117E+00
 -0.31884E+00
 -0.19773E+00
 -0.14454E+01
 -0.40753E+00
 -0.40758E+00
 -0.44933E+00
 -0.38688E+00
 -0.37401E+00
 -0.36699E+00
 -0.28106E+00
 -0.35522E+00
 -0.34228E+00
 -0.68679E+00
 -0.34316E+00
 -0.14581E+01
 -0.65116E+00
 -0.37627E+00
 -0.11945E+01
 -0.43781E+00
 -0.54002E+00
 -0.46351E+00
 -0.39340E+00
 -0.35528E+00
 -0.57527E+00
 -0.47909E+00
 -0.30030E+00
 -0.45154E+00
 -0.84059E+00
 -0.39247E-02
 -0.41803E-01
 -0.78022E+00
 -0.35070E+00
 -0.11199E+01
 -0.84925E+00
 -0.82097E+00
 -0.95732E+00
 -0.21003E+00
 -0.44510E-01
 -0.37518E+00
 -0.97211E+00
 -0.52286E+00
 -0.46123E+00
 -0.47245E+00
 -0.83708E+00
 -0.26796E+00
 -0.28664E+00
 -0.45986E+00
 -0.47169E+00
 -0.35399E+00
 -0.47426E+00
 -0.49873E+00
 -0.70390E-01
 -0.28907E+00
 -0.88617E+00
 -0.14140E+01
 -0.76196E+00
 -0.59383E+00
 -0.38343E+00
 -0.10527E+01
 -0.27658E+00
 -0.28389E-01
 -0.41471E+00
 -0.79303E+00
 -0.67271E+00
 -0.33207E+00
 -0.32476E+00
 -0.76992E+00
 -0.38357E+00
 -0.13251E+01
  0.24224E-01
  0.50941E-01
  0.52412E-01
  0.50466E-01
  0.51385E-01
  0.49376E-01
  0.49518E-01
  0.47796E-01
  0.47390E-01
  0.49026E-01
  0.46289E-01
  0.45245E-01
  0.43553E-01
  0.43093E-01
  0.40712E-01
  0.41126E-01
  0.38656E-01
  0.37185E-01
  0.35298E-01
  0.32847E-01
  0.31418E-01
  0.27707E-01
  0.29225E-01
  0.22222E-01
  0.22449E-01
  0.15747E-01
  0.36906E-01
  0.14554E-01
  0.70046E-02
  0.96644E-02
  0.59709E-03
 -0.42731E-02
 -0.10590E-01
 -0.41240E-01
 -0.22437E-01
 -0.32895E-01
 -0.37667E-02
 -0.14254E-01
 -0.22747E-01
 -0.24023E-01
 -0.33795E-01
 -0.30925E-01
 -0.40695E-01
 -0.35473E-01
 -0.39765E-01
 -0.35874E-01
 -0.39393E-01
 -0.35541E-01
 -0.40651E-01
 -0.36882E-01
 -0.44166E-01
 -0.40774E-01
 -0.50195E-01
 -0.46434E-01
 -0.57337E-01
 -0.56060E-01
 -0.64277E-01
 -0.57530E-01
 -0.62980E-01
 -0.68193E-01
 -0.51861E-01
 -0.34633E-01
 -0.57732E-01
 -0.43535E-01
 -0.49051E-01
 -0.38248E-01
 -0.43073E-01
 -0.37996E-01
 -0.35183E-01
 -0.42790E-01
 -0.32594E-01
 -0.42866E-01
 -0.46377E-01
 -0.43648E-01
 -0.45276E-01
 -0.44400E-01
 -0.36659E-01
 -0.35983E-01
 -0.50057E-01
 -0.25050E-01
 -0.23049E-01
 -0.17004E-01
 -0.37254E-01
 -0.67644E-01
 -0.68638E-01
 -0.67998E-01
 -0.66290E-01
 -0.65796E-01
 -0.61118E-01
 -0.62816E-01
 -0.54834E-01
 -0.60705E-01
 -0.54428E-01
 -0.60888E-01
 -0.65454E-01
 -0.62311E-01
 -0.65859E-01
 -0.64463E-01
 -0.65970E-01
 -0.65917E-01
 -0.65816E-01
 -0.65815E-01
 -0.65070E-01
 -0.65389E-01
 -0.64491E-01
 -0.63693E-01
 -0.64862E-01
 -0.63082E-01
 -0.61793E-01
 -0.61245E-01
 -0.59602E-01
 -0.60528E-01
 -0.58030E-01
 -0.55488E-01
 -0.57236E-01
 -0.55527E-01
 -0.60846E-01
 -0.59373E-01
 -0.60038E-02
 -0.15044E-01
 -0.13295E-01
 -0.19917E-01
 -0.12402E-01
 -0.77170E-02
 -0.61953E-02
 -0.56181E-01
 -0.48412E-01
 -0.52200E-01
 -0.46482E-02
  0.99696E-02
 -0.62563E-01
 -0.60854E-01
 -0.62040E-01
 -0.50627E-02
 -0.38876E-02
  0.28825E-01
  0.30872E-01
  0.32318E-01
  0.30672E-03
 -0.43497E-01
  0.44814E-01
 -0.96920E+00
 -0.51474E+00
 -0.13249E+01
 -0.26726E-01
 -0.30204E-01
 -0.25355E+00
 -0.89869E+00
 -0.42716E+00
 -0.25053E-01
  0.26579E-01
 -0.62803E+00
 -0.41505E+00
 -0.61753E+00
 -0.71875E-01
 -0.38785E+00
 -0.46327E+00
 -0.38591E+00
 -0.38492E+00
 -0.46968E+00
 -0.42374E+00
 -0.45080E-01
 -0.66417E-01
 -0.30415E-01
 -0.33815E-01
 -0.11302E-01
 -0.26774E-02
 -0.76020E-02
 -0.16143E-02
 -0.47017E-02
 -0.77144E-01
 -0.74847E-01
 -0.39955E-02
 -0.59741E-01
  0.17745E-01
  0.13067E-01
 -0.60073E-01
  0.44504E-01
 -0.44548E-01
  0.39432E-01
 -0.97259E+00
 -0.13324E+01
 -0.58225E+00
 -0.20462E-01
 -0.26596E+00
 -0.15148E+00
 -0.23337E-01
 -0.81226E-01
 -0.36636E-01
 -0.12489E+00
 -0.87272E-01
 -0.48847E+00
 -0.86319E+00
 -0.24886E+00
  0.41119E-01
  0.39023E-01
 -0.45285E-01
 -0.50622E-01
  0.30850E-02
 -0.63903E-01
 -0.66507E-01
  0.44520E-01
 -0.62694E-01
 -0.63259E-01
 -0.35483E+00
 -0.56283E+00
 -0.25235E-01
  0.53803E-01
  0.32743E-01
 -0.33548E-01
 -0.16847E-01
 -0.61003E+00
  0.39707E-01
  0.14944E-01
 -0.65278E-01
 -0.64449E-01
 -0.66031E+00
  0.48039E-01
  0.49532E-01
 -0.15139E+00
  0.50586E-01
  0.26627E-01
 -0.67570E+00
 -0.38264E+00
 -0.60483E-01
 -0.61403E-01
  0.29561E-01
  0.27424E-01
 -0.54874E-01
 -0.53143E-01
 -0.53996E-01
 -0.51790E-01
 -0.50941E-01
 -0.47165E-01
  0.94049E-02
  0.21279E-01
 -0.51104E-02
 -0.10271E-01
 -0.83284E+00
 -0.31909E+00
 -0.11908E+01
 -0.62967E+00
 -0.21806E+00
  0.54536E-01
  0.34230E-01
 -0.46127E-01
 -0.55031E-01
 -0.34085E-01
 -0.61459E-01
 -0.41408E-01
 -0.26191E-02
 -0.58153E-01
 -0.57958E-01
 -0.53823E+00
 -0.30231E+00
 -0.14854E+01
 -0.14467E+01
 -0.16533E+01
 -0.50020E+00
 -0.48920E+00
 -0.51021E+00
 -0.54647E+00
 -0.68794E+00
 -0.56675E+00
 -0.71852E+00
 -0.56338E+00
 -0.67198E+00
 -0.74098E+00
 -0.59911E+00
 -0.64775E+00
 -0.56797E+00
 -0.54905E+00
 -0.58707E+00
 -0.53556E+00
 -0.28641E-02
 -0.52462E-01
 -0.64840E-01
 -0.36906E+00
 -0.20347E+00
 -0.47518E-01
 -0.34601E+00
 -0.16582E+01
 -0.52629E+00
 -0.60144E+00
 -0.18200E+01
 -0.54910E+00
 -0.66453E-01
 -0.31742E+00
 -0.27794E+00
 -0.45959E+00
 -0.27524E-01
  0.40478E-01
 -0.62742E-01
 -0.75307E-01
 -0.14359E-02
 -0.39511E+00
 -0.49184E+00
 -0.62018E-01
 -0.61258E-01
 -0.62239E+00
 -0.65977E+00
 -0.93615E+00
 -0.62571E-01
 -0.61483E-01
 -0.62231E-01
 -0.60545E-01
 -0.60819E-01
 -0.58388E-01
 -0.58073E-01
 -0.55312E-01
 -0.43278E-01
 -0.49120E-01
 -0.36632E-01
 -0.18380E-01
 -0.28538E+00
  0.48793E-01
 -0.64316E-01
 -0.67893E-01
 -0.64182E-01
  0.18764E-01
  0.27667E-01
  0.31684E-01
 -0.72262E-01
 -0.82090E-01
 -0.30093E+00
 -0.68152E+00
 -0.77464E+00
 -0.49779E-01
 -0.28723E+00
  0.34459E-01
  0.33089E-01
  0.35974E-01
 -0.37742E+00
 -0.73971E+00
 -0.76668E+00
 -0.42075E+00
 -0.51130E+00
 -0.67189E+00
 -0.68150E+00
 -0.76998E-01
 -0.38361E-01
 -0.12204E-01
 -0.60437E-01
 -0.63397E+00
 -0.40613E+00
 -0.44888E-01
 -0.34015E-01
 -0.60385E+00
 -0.66849E-01
  0.28329E-01
 -0.31968E-01
 -0.58131E-01
 -0.28923E-01
  0.36982E-01
 -0.44670E+00
 -0.83037E-01
 -0.41485E+00
 -0.52793E-01
 -0.54785E-01
 -0.69213E+00
 -0.44808E-01
 -0.31158E+00
 -0.40600E+00
 -0.43298E+00
 -0.25830E+00
 -0.26356E+00
 -0.62860E-01
 -0.47772E+00
 -0.14619E+00
  0.26186E-01
  0.23210E-01
  0.25485E-01
  0.37409E-01
  0.44740E-01
  0.43428E-01
  0.48330E-01
  0.46464E-01
 -0.30114E-02
 -0.49154E-01
 -0.79267E-02
 -0.54413E-01
 -0.52400E-01
 -0.76355E-01
  0.13180E-01
  0.18842E-01
 -0.57964E-01
  0.35205E-01
  0.40132E-01
 -0.22347E+00
 -0.32963E+00
 -0.28234E+00
 -0.46736E+00
 -0.84073E-01
 -0.66543E-01
  0.12223E-01
 -0.57949E-01
 -0.56592E-01
 -0.48997E-01
 -0.64134E-01
 -0.63540E-01
 -0.59290E-01
 -0.10339E+01
 -0.52514E-01
 -0.50829E-01
 -0.10336E+00
 -0.61575E-01
 -0.55669E-01
 -0.66054E-01
 -0.64888E+00
 -0.40613E-01
 -0.15426E+01
 -0.17015E+01
 -0.29462E+00
 -0.54393E+00
 -0.14925E+01
 -0.57184E+00
 -0.56907E-01
  0.33827E-01
 -0.10636E+00
 -0.60120E-01
 -0.39360E-01
 -0.19569E+00
  0.26967E-01
  0.25047E-01
  0.23786E-01
 -0.11267E-03
 -0.62244E+00
 -0.61910E-01
 -0.10437E+01
 -0.30593E+00
 -0.28043E+00
 -0.17619E+00
 -0.84731E+00
 -0.66302E+00
 -0.46215E-01
 -0.38731E-01
 -0.47718E-01
 -0.42331E-01
 -0.48722E-01
 -0.28342E-01
 -0.33086E-01
 -0.28993E+00
  0.44570E-01
  0.34641E-01
  0.33415E-01
 -0.31716E+00
 -0.42763E+00
 -0.64890E+00
 -0.46695E+00
 -0.31234E+00
 -0.67390E+00
 -0.40007E-02
 -0.11184E+01
 -0.35460E+00
 -0.12844E+01
 -0.16516E+00
 -0.29152E+00
 -0.37722E+00
 -0.35406E+00
 -0.74096E+00
 -0.52876E-01
 -0.17595E-01
 -0.80243E-01
 -0.74068E-01
 -0.43480E+00
 -0.95423E+00
 -0.18631E+01
 -0.85425E+00
 -0.20584E-01
 -0.16259E-01
 -0.25997E-01
  0.11022E-02
 -0.52919E-01
 -0.54995E-01
 -0.51366E-01
 -0.53283E-01
 -0.22484E-01
 -0.31160E-01
 -0.34219E-01
 -0.35556E-01
 -0.37193E-01
 -0.35823E-01
 -0.36321E-01
 -0.34040E-01
 -0.34180E-01
 -0.31849E-01
 -0.31247E-01
 -0.29078E-01
 -0.27082E-01
 -0.24152E-01
 -0.30254E-01
 -0.21496E-01
 -0.17723E-01
 -0.21462E-01
 -0.14043E-01
 -0.34901E-01
 -0.70831E-01
 -0.71368E-02
 -0.62914E-02
 -0.37234E+00
 -0.40180E+00
 -0.50904E+00
 -0.15630E-02
  0.25532E-03
  0.46515E-03
  0.25403E-02
 -0.50425E-01
 -0.50540E-01
 -0.49906E-01
 -0.50257E-01
 -0.28586E+00
 -0.64234E-01
 -0.45689E-01
 -0.41794E-01
  0.22311E-01
  0.21085E-01
  0.19243E-01
 -0.55669E+00
 -0.86439E-01
 -0.63853E-01
 -0.29788E-01
 -0.32210E+00
 -0.31754E+00
 -0.21082E+00
 -0.45263E-01
  0.50331E-01
  0.52197E-01
 -0.49639E-01
  0.38589E-01
  0.39800E-01
  0.41610E-01
 -0.45514E+00
 -0.52410E+00
 -0.55544E+00
 -0.63977E+00
 -0.27558E-01
 -0.30857E+00
 -0.24299E-01
  0.40252E-01
  0.47170E-01
 -0.75401E-01
 -0.68015E-01
 -0.36297E+00
  0.31178E-01
  0.36835E-01
  0.30251E-01
  0.28967E-01
  0.33310E-01
 -0.59889E+00
  0.37257E-01
 -0.39844E-01
  0.34783E-01
 -0.37826E+00
 -0.62765E+00
 -0.36953E+00
 -0.32593E-01
 -0.10147E-01
 -0.54593E-02
 -0.56849E+00
  0.30190E-03
 -0.38271E+00
  0.27700E-02
 -0.13387E-01
 -0.11767E-01
 -0.63123E-02
 -0.17541E-01
 -0.56925E-01
 -0.56926E-01
 -0.21306E+00
 -0.11202E+00
  0.22864E-01
 -0.75025E+00
 -0.45531E+00
 -0.12989E+01
  0.17981E-01
  0.15413E-01
  0.89302E-02
 -0.50170E+00
 -0.96392E+00
 -0.67453E-01
 -0.56351E-01
 -0.55424E-01
 -0.41562E-01
 -0.40118E-01
 -0.27387E-01
 -0.30908E-01
 -0.19283E-01
 -0.15049E-01
 -0.89186E-02
 -0.62965E-02
 -0.40035E-01
 -0.38047E-01
 -0.85505E+00
 -0.44813E-01
  0.22554E-01
  0.23451E-01
  0.21833E-01
  0.24424E-01
  0.25994E-01
  0.25615E-01
  0.25978E-01
  0.25612E-01
  0.25082E-01
  0.25721E-01
  0.23827E-01
  0.23625E-01
  0.21608E-01
  0.22108E-01
  0.19770E-01
  0.18715E-01
  0.16955E-01
  0.15466E-01
  0.13824E-01
  0.12035E-01
  0.10139E-01
  0.12062E-01
  0.80781E-02
  0.58217E-02
  0.17274E-01
  0.40798E-02
  0.12915E-02
 -0.34872E-01
 -0.63743E-01
 -0.67775E-01
 -0.46718E-02
 -0.46862E-01
 -0.35802E-01
 -0.69341E+00
 -0.64815E+00
 -0.11573E-01
 -0.26117E+00
 -0.13922E-01
 -0.48558E-01
  0.30788E-01
 -0.99943E-01
 -0.52293E-01
 -0.55046E-01
  0.33707E-01
  0.37716E-01
  0.25005E-01
 -0.16808E+00
 -0.31990E-02
 -0.30569E+00
 -0.89872E+00
 -0.32459E-01
 -0.27303E-01
 -0.64153E-01
 -0.82447E+00
 -0.43577E+00
 -0.31056E+00
 -0.46098E+00
  0.31375E-02
  0.55060E-02
 -0.36382E+00
 -0.57783E-02
 -0.59230E-02
 -0.44097E+00
 -0.50418E-01
 -0.51199E-01
 -0.21232E-02
  0.29025E-02
 -0.91243E-03
  0.78067E-02
  0.20371E-01
 -0.30449E+00
 -0.31546E+00
 -0.35522E+00
 -0.15937E+00
  0.29525E-03
 -0.70423E-02
 -0.67445E-01
 -0.41004E-01
 -0.44736E-01
  0.27198E-01
 -0.62100E+00
 -0.76455E+00
 -0.62416E-01
 -0.61913E+00
 -0.36502E-01
 -0.53891E-01
 -0.37065E-01
  0.33284E-01
  0.40880E-01
  0.39191E-01
  0.42506E-01
  0.43487E-01
  0.44000E-01
  0.45113E-01
  0.45201E-01
  0.46438E-01
 -0.11490E-01
 -0.70580E-01
 -0.19001E-01
 -0.24634E-01
  0.17532E-01
  0.14333E-01
  0.11540E-01
  0.10334E-01
  0.70431E-02
  0.54440E-02
  0.82067E-02
  0.50298E-01
  0.51629E-01
  0.48813E-01
  0.52272E-01
  0.49643E-01
  0.52121E-01
  0.54575E-01
 -0.56671E+00
 -0.62363E+00
 -0.48894E+00
 -0.71505E+00
  0.26956E-01
  0.76603E-02
  0.54690E-01
  0.54969E-01
  0.52585E-01
  0.54507E-01
  0.56681E-01
 -0.25915E-01
 -0.32471E-01
 -0.31770E-01
 -0.37645E-01
 -0.22589E+00
 -0.13117E+01
 -0.36913E-01
  0.31981E-02
 -0.22081E-02
  0.35006E-03
 -0.73803E+00
 -0.11697E+00
 -0.41887E-01
 -0.70667E+00
  0.52623E-01
 -0.38350E-02
  0.43412E-02
  0.13378E-01
  0.15145E-01
  0.20002E-01
  0.20738E-01
  0.25563E-01
  0.25639E-01
  0.25129E-01
  0.29812E-01
 -0.54083E-01
 -0.64616E-01
 -0.57898E-01
 -0.64969E-01
 -0.53300E-01
 -0.28555E+00
 -0.42661E+00
 -0.48596E-01
 -0.41483E-01
 -0.31055E-01
 -0.54349E-01
  0.54446E-01
  0.56625E-01
  0.55983E-01
  0.57846E-01
  0.56878E-01
  0.55976E-01
  0.57759E-01
  0.58701E-01
  0.55010E-01
  0.56766E-01
  0.52753E-01
  0.58257E-01
  0.58237E-01
 -0.50887E-01
 -0.49632E-01
 -0.43594E-01
  0.18750E-01
 -0.66786E-01
 -0.51454E-01
  0.26112E-01
 -0.55148E-01
 -0.57108E-01
 -0.58512E-01
 -0.58299E-01
 -0.37417E-01
 -0.44205E-01
 -0.50148E-01
 -0.43131E-01
 -0.40120E-01
 -0.51314E-01
 -0.57591E-01
 -0.17877E-01
 -0.12733E-01
 -0.34557E+00
 -0.29672E+00
 -0.29031E-01
  0.21001E-01
 -0.10559E-01
  0.76609E-02
 -0.34099E+00
  0.23842E-01
  0.20810E-01
  0.91773E-03
 -0.68664E-01
 -0.68278E-01
 -0.14745E-01
  0.25391E-01
  0.13804E-01
 -0.63358E-01
  0.45967E-01
  0.47009E-01
  0.43435E-01
  0.47474E-01
 -0.33060E+00
 -0.61206E-01
 -0.61209E-01
  0.42015E-02
 -0.28686E+00
 -0.41234E+00
  0.40317E-01
  0.38737E-01
 -0.53591E-01
 -0.27310E-01
 -0.30296E-01
 -0.31185E-01
 -0.31759E-01
 -0.31892E-01
 -0.33446E-01
 -0.35546E-01
 -0.30637E-01
 -0.31737E-01
 -0.25049E-01
 -0.26841E+00
 -0.40093E-01
  0.46390E-01
  0.46983E-01
  0.46232E-01
  0.45306E-01
  0.45140E-01
  0.46329E-01
  0.44190E-01
  0.43836E-01
  0.46819E-01
  0.47933E-01
  0.44913E-01
  0.43031E-01
  0.42326E-01
  0.41205E-01
  0.40804E-01
  0.39455E-01
  0.39423E-01
  0.37861E-01
  0.38150E-01
  0.36502E-01
  0.35339E-01
 -0.23932E-01
 -0.16810E+01
 -0.15825E+01
 -0.50465E-01
 -0.64407E-01
 -0.58176E-01
 -0.75174E-01
  0.96501E-02
 -0.42582E-01
 -0.48325E-01
 -0.49122E-01
 -0.44507E-01
 -0.47869E-01
 -0.26950E-02
 -0.13726E-01
  0.37990E-01
  0.43774E-01
  0.43115E-01
 -0.54037E-01
 -0.51700E-01
 -0.46876E-01
 -0.35096E+00
 -0.31888E-01
  0.25080E-02
  0.27661E-01
  0.26639E-01
  0.40436E-01
 -0.90462E+00
 -0.56080E+00
 -0.33074E-01
 -0.33851E-01
 -0.50020E-01
 -0.52244E-01
 -0.49710E-01
 -0.54692E-01
  0.28067E-01
 -0.45349E+00
  0.38111E-01
 -0.58681E+00
 -0.23429E-01
 -0.38332E-01
 -0.40912E-01
 -0.47886E-01
 -0.47375E-01
 -0.28922E-01
 -0.34028E-01
  0.34946E-01
  0.56036E-02
  0.15076E-01
 -0.13279E-01
 -0.22142E-01
 -0.71677E-02
  0.34080E-01
  0.35125E-01
 -0.55067E-01
  0.58286E-01
 -0.58187E-01
 -0.51180E-01
 -0.54576E-01
 -0.44804E-01
 -0.31014E-01
  0.29902E-01
  0.35979E-01
 -0.56545E-01
  0.18727E-01
 -0.64876E-01
 -0.57615E-01
 -0.57630E-01
 -0.58028E+00
 -0.64464E-02
 -0.65996E-01
 -0.64722E-01
  0.31716E-01
  0.33090E-01
  0.35493E-01
  0.35801E-01
 -0.50930E-01
 -0.59188E-01
 -0.63967E-01
 -0.65714E-01
 -0.31738E-01
 -0.20165E-01
 -0.22422E-01
 -0.13489E-01
 -0.97354E-02
  0.95260E-03
 -0.98769E-02
 -0.56636E-01
  0.19193E-01
 -0.72787E-01
 -0.32660E-01
 -0.19172E-01
  0.56991E-01
  0.43631E-01
 -0.50115E-02
 -0.35359E-02
 -0.54822E+00
 -0.11282E+01
 -0.26246E+00
  0.47347E-01
 -0.51535E-01
 -0.55004E-01
 -0.76946E-01
 -0.64526E-01
 -0.45191E-01
 -0.57498E-01
  0.22055E-01
  0.12788E-01
  0.38211E-02
 -0.10930E-02
 -0.21183E+00
 -0.59490E-01
 -0.31140E-01
  0.31887E-01