# vtk DataFile Version 2.0
Unstructured Grid UFVM-ECOMOD
ASCII
DATASET UNSTRUCTURED_GRID
 POINTS         2086  float
  0.00000E+00  0.00000E+00  0.00000E+00
  0.40000E+01  0.00000E+00  0.00000E+00
  0.40000E+01  0.20000E+01  0.00000E+00
  0.00000E+00  0.20000E+01  0.00000E+00
  0.11787E+01  0.12812E+01  0.00000E+00
  0.11720E+01  0.12579E+01  0.00000E+00
  0.11523E+01  0.12361E+01  0.00000E+00
  0.11208E+01  0.12171E+01  0.00000E+00
  0.10795E+01  0.12021E+01  0.00000E+00
  0.10311E+01  0.11921E+01  0.00000E+00
  0.97842E+00  0.11877E+01  0.00000E+00
  0.92495E+00  0.11892E+01  0.00000E+00
  0.87399E+00  0.11964E+01  0.00000E+00
  0.82875E+00  0.12090E+01  0.00000E+00
  0.79207E+00  0.12262E+01  0.00000E+00
  0.76626E+00  0.12467E+01  0.00000E+00
  0.75294E+00  0.12695E+01  0.00000E+00
  0.75294E+00  0.12930E+01  0.00000E+00
  0.76626E+00  0.13158E+01  0.00000E+00
  0.79207E+00  0.13363E+01  0.00000E+00
  0.82875E+00  0.13535E+01  0.00000E+00
  0.87399E+00  0.13661E+01  0.00000E+00
  0.92495E+00  0.13733E+01  0.00000E+00
  0.97842E+00  0.13748E+01  0.00000E+00
  0.10311E+01  0.13704E+01  0.00000E+00
  0.10795E+01  0.13604E+01  0.00000E+00
  0.11208E+01  0.13454E+01  0.00000E+00
  0.11523E+01  0.13264E+01  0.00000E+00
  0.11720E+01  0.13046E+01  0.00000E+00
  0.11275E+01  0.10550E+01  0.00000E+00
  0.11246E+01  0.10357E+01  0.00000E+00
  0.11162E+01  0.10177E+01  0.00000E+00
  0.11028E+01  0.10019E+01  0.00000E+00
  0.10851E+01  0.98956E+00  0.00000E+00
  0.10644E+01  0.98129E+00  0.00000E+00
  0.10420E+01  0.97765E+00  0.00000E+00
  0.10192E+01  0.97887E+00  0.00000E+00
  0.99740E+00  0.98488E+00  0.00000E+00
  0.97809E+00  0.99529E+00  0.00000E+00
  0.96243E+00  0.10094E+01  0.00000E+00
  0.95141E+00  0.10265E+01  0.00000E+00
  0.94572E+00  0.10453E+01  0.00000E+00
  0.94572E+00  0.10647E+01  0.00000E+00
  0.95141E+00  0.10835E+01  0.00000E+00
  0.96243E+00  0.11005E+01  0.00000E+00
  0.97809E+00  0.11147E+01  0.00000E+00
  0.99740E+00  0.11251E+01  0.00000E+00
  0.10192E+01  0.11311E+01  0.00000E+00
  0.10420E+01  0.11323E+01  0.00000E+00
  0.10644E+01  0.11287E+01  0.00000E+00
  0.10851E+01  0.11204E+01  0.00000E+00
  0.11028E+01  0.11080E+01  0.00000E+00
  0.11162E+01  0.10923E+01  0.00000E+00
  0.11246E+01  0.10743E+01  0.00000E+00
  0.62875E+00  0.11344E+01  0.00000E+00
  0.62759E+00  0.10960E+01  0.00000E+00
  0.62419E+00  0.10600E+01  0.00000E+00
  0.61876E+00  0.10287E+01  0.00000E+00
  0.61163E+00  0.10040E+01  0.00000E+00
  0.60327E+00  0.98756E+00  0.00000E+00
  0.59419E+00  0.98030E+00  0.00000E+00
  0.58497E+00  0.98273E+00  0.00000E+00
  0.57617E+00  0.99469E+00  0.00000E+00
  0.56837E+00  0.10154E+01  0.00000E+00
  0.56204E+00  0.10436E+01  0.00000E+00
  0.55759E+00  0.10776E+01  0.00000E+00
  0.55529E+00  0.11150E+01  0.00000E+00
  0.55529E+00  0.11537E+01  0.00000E+00
  0.55759E+00  0.11912E+01  0.00000E+00
  0.56204E+00  0.12251E+01  0.00000E+00
  0.56837E+00  0.12533E+01  0.00000E+00
  0.57617E+00  0.12741E+01  0.00000E+00
  0.58497E+00  0.12860E+01  0.00000E+00
  0.59419E+00  0.12885E+01  0.00000E+00
  0.60327E+00  0.12812E+01  0.00000E+00
  0.61163E+00  0.12647E+01  0.00000E+00
  0.61876E+00  0.12401E+01  0.00000E+00
  0.62419E+00  0.12087E+01  0.00000E+00
  0.62759E+00  0.11728E+01  0.00000E+00
  0.10000E+00  0.00000E+00  0.00000E+00
  0.20000E+00  0.00000E+00  0.00000E+00
  0.30000E+00  0.00000E+00  0.00000E+00
  0.40000E+00  0.00000E+00  0.00000E+00
  0.50000E+00  0.00000E+00  0.00000E+00
  0.60000E+00  0.00000E+00  0.00000E+00
  0.70000E+00  0.00000E+00  0.00000E+00
  0.80000E+00  0.00000E+00  0.00000E+00
  0.90000E+00  0.00000E+00  0.00000E+00
  0.10000E+01  0.00000E+00  0.00000E+00
  0.11000E+01  0.00000E+00  0.00000E+00
  0.12000E+01  0.00000E+00  0.00000E+00
  0.13000E+01  0.00000E+00  0.00000E+00
  0.14000E+01  0.00000E+00  0.00000E+00
  0.15000E+01  0.00000E+00  0.00000E+00
  0.16000E+01  0.00000E+00  0.00000E+00
  0.17000E+01  0.00000E+00  0.00000E+00
  0.18000E+01  0.00000E+00  0.00000E+00
  0.19000E+01  0.00000E+00  0.00000E+00
  0.20000E+01  0.00000E+00  0.00000E+00
  0.21000E+01  0.00000E+00  0.00000E+00
  0.22000E+01  0.00000E+00  0.00000E+00
  0.23000E+01  0.00000E+00  0.00000E+00
  0.24000E+01  0.00000E+00  0.00000E+00
  0.25000E+01  0.00000E+00  0.00000E+00
  0.26000E+01  0.00000E+00  0.00000E+00
  0.27000E+01  0.00000E+00  0.00000E+00
  0.28000E+01  0.00000E+00  0.00000E+00
  0.29000E+01  0.00000E+00  0.00000E+00
  0.30000E+01  0.00000E+00  0.00000E+00
  0.31000E+01  0.00000E+00  0.00000E+00
  0.32000E+01  0.00000E+00  0.00000E+00
  0.33000E+01  0.00000E+00  0.00000E+00
  0.34000E+01  0.00000E+00  0.00000E+00
  0.35000E+01  0.00000E+00  0.00000E+00
  0.36000E+01  0.00000E+00  0.00000E+00
  0.37000E+01  0.00000E+00  0.00000E+00
  0.38000E+01  0.00000E+00  0.00000E+00
  0.39000E+01  0.00000E+00  0.00000E+00
  0.40000E+01  0.10000E+00  0.00000E+00
  0.40000E+01  0.20000E+00  0.00000E+00
  0.40000E+01  0.30000E+00  0.00000E+00
  0.40000E+01  0.40000E+00  0.00000E+00
  0.40000E+01  0.50000E+00  0.00000E+00
  0.40000E+01  0.60000E+00  0.00000E+00
  0.40000E+01  0.70000E+00  0.00000E+00
  0.40000E+01  0.80000E+00  0.00000E+00
  0.40000E+01  0.90000E+00  0.00000E+00
  0.40000E+01  0.10000E+01  0.00000E+00
  0.40000E+01  0.11000E+01  0.00000E+00
  0.40000E+01  0.12000E+01  0.00000E+00
  0.40000E+01  0.13000E+01  0.00000E+00
  0.40000E+01  0.14000E+01  0.00000E+00
  0.40000E+01  0.15000E+01  0.00000E+00
  0.40000E+01  0.16000E+01  0.00000E+00
  0.40000E+01  0.17000E+01  0.00000E+00
  0.40000E+01  0.18000E+01  0.00000E+00
  0.40000E+01  0.19000E+01  0.00000E+00
  0.39000E+01  0.20000E+01  0.00000E+00
  0.38000E+01  0.20000E+01  0.00000E+00
  0.37000E+01  0.20000E+01  0.00000E+00
  0.36000E+01  0.20000E+01  0.00000E+00
  0.35000E+01  0.20000E+01  0.00000E+00
  0.34000E+01  0.20000E+01  0.00000E+00
  0.33000E+01  0.20000E+01  0.00000E+00
  0.32000E+01  0.20000E+01  0.00000E+00
  0.31000E+01  0.20000E+01  0.00000E+00
  0.30000E+01  0.20000E+01  0.00000E+00
  0.29000E+01  0.20000E+01  0.00000E+00
  0.28000E+01  0.20000E+01  0.00000E+00
  0.27000E+01  0.20000E+01  0.00000E+00
  0.26000E+01  0.20000E+01  0.00000E+00
  0.25000E+01  0.20000E+01  0.00000E+00
  0.24000E+01  0.20000E+01  0.00000E+00
  0.23000E+01  0.20000E+01  0.00000E+00
  0.22000E+01  0.20000E+01  0.00000E+00
  0.21000E+01  0.20000E+01  0.00000E+00
  0.20000E+01  0.20000E+01  0.00000E+00
  0.19000E+01  0.20000E+01  0.00000E+00
  0.18000E+01  0.20000E+01  0.00000E+00
  0.17000E+01  0.20000E+01  0.00000E+00
  0.16000E+01  0.20000E+01  0.00000E+00
  0.15000E+01  0.20000E+01  0.00000E+00
  0.14000E+01  0.20000E+01  0.00000E+00
  0.13000E+01  0.20000E+01  0.00000E+00
  0.12000E+01  0.20000E+01  0.00000E+00
  0.11000E+01  0.20000E+01  0.00000E+00
  0.10000E+01  0.20000E+01  0.00000E+00
  0.90000E+00  0.20000E+01  0.00000E+00
  0.80000E+00  0.20000E+01  0.00000E+00
  0.70000E+00  0.20000E+01  0.00000E+00
  0.60000E+00  0.20000E+01  0.00000E+00
  0.50000E+00  0.20000E+01  0.00000E+00
  0.40000E+00  0.20000E+01  0.00000E+00
  0.30000E+00  0.20000E+01  0.00000E+00
  0.20000E+00  0.20000E+01  0.00000E+00
  0.10000E+00  0.20000E+01  0.00000E+00
  0.00000E+00  0.19000E+01  0.00000E+00
  0.00000E+00  0.18000E+01  0.00000E+00
  0.00000E+00  0.17000E+01  0.00000E+00
  0.00000E+00  0.16000E+01  0.00000E+00
  0.00000E+00  0.15000E+01  0.00000E+00
  0.00000E+00  0.14000E+01  0.00000E+00
  0.00000E+00  0.13000E+01  0.00000E+00
  0.00000E+00  0.12000E+01  0.00000E+00
  0.00000E+00  0.11000E+01  0.00000E+00
  0.00000E+00  0.10000E+01  0.00000E+00
  0.00000E+00  0.90000E+00  0.00000E+00
  0.00000E+00  0.80000E+00  0.00000E+00
  0.00000E+00  0.70000E+00  0.00000E+00
  0.00000E+00  0.60000E+00  0.00000E+00
  0.00000E+00  0.50000E+00  0.00000E+00
  0.00000E+00  0.40000E+00  0.00000E+00
  0.00000E+00  0.30000E+00  0.00000E+00
  0.00000E+00  0.20000E+00  0.00000E+00
  0.00000E+00  0.10000E+00  0.00000E+00
  0.11961E+01  0.12633E+01  0.00000E+00
  0.21488E+01  0.93320E-01  0.00000E+00
  0.61866E+00  0.98978E+00  0.00000E+00
  0.20489E+01  0.19184E+01  0.00000E+00
  0.25498E+01  0.19136E+01  0.00000E+00
  0.29499E+01  0.86560E-01  0.00000E+00
  0.93236E+00  0.10310E+01  0.00000E+00
  0.17510E+01  0.72450E-01  0.00000E+00
  0.29467E+01  0.19168E+01  0.00000E+00
  0.25487E+01  0.85720E-01  0.00000E+00
  0.76221E+00  0.13471E+01  0.00000E+00
  0.39134E+01  0.10499E+01  0.00000E+00
  0.11777E+01  0.13352E+01  0.00000E+00
  0.75033E+00  0.75620E-01  0.00000E+00
  0.13476E+01  0.80200E-01  0.00000E+00
  0.10427E+01  0.86980E-01  0.00000E+00
  0.16534E+01  0.19146E+01  0.00000E+00
  0.33491E+01  0.86080E-01  0.00000E+00
  0.76560E-01  0.54986E+00  0.00000E+00
  0.33536E+01  0.19187E+01  0.00000E+00
  0.64251E+00  0.10384E+01  0.00000E+00
  0.54363E+00  0.10247E+01  0.00000E+00
  0.39158E+01  0.64933E+00  0.00000E+00
  0.53844E+00  0.12429E+01  0.00000E+00
  0.11152E+01  0.13830E+01  0.00000E+00
  0.39057E+01  0.13553E+01  0.00000E+00
  0.45348E+00  0.19192E+01  0.00000E+00
  0.84329E+00  0.13986E+01  0.00000E+00
  0.10069E+01  0.14153E+01  0.00000E+00
  0.79140E-01  0.15509E+01  0.00000E+00
  0.51664E+00  0.11388E+01  0.00000E+00
  0.13387E+01  0.19132E+01  0.00000E+00
  0.61809E+00  0.12788E+01  0.00000E+00
  0.44149E+00  0.86000E-01  0.00000E+00
  0.82010E-01  0.85167E+00  0.00000E+00
  0.79235E+00  0.11912E+01  0.00000E+00
  0.73934E+00  0.19100E+01  0.00000E+00
  0.97720E-01  0.12541E+01  0.00000E+00
  0.36625E+01  0.99060E-01  0.00000E+00
  0.36500E+01  0.19142E+01  0.00000E+00
  0.10534E+01  0.19002E+01  0.00000E+00
  0.93232E+00  0.10799E+01  0.00000E+00
  0.73234E+00  0.12821E+01  0.00000E+00
  0.11221E+01  0.11125E+01  0.00000E+00
  0.38972E+01  0.16498E+01  0.00000E+00
  0.39125E+01  0.34987E+00  0.00000E+00
  0.91360E-01  0.10554E+01  0.00000E+00
  0.66195E+00  0.11154E+01  0.00000E+00
  0.82340E-01  0.34870E+00  0.00000E+00
  0.18502E+01  0.19156E+01  0.00000E+00
  0.15459E+01  0.76350E-01  0.00000E+00
  0.19483E+01  0.85500E-01  0.00000E+00
[...]
 POINT_DATA         2086
  
 SCALARS WL      float 1
 LOOKUP_TABLE default
  0.11461E-01
  0.10281E-02
  0.33776E-02
  0.22869E-01
 -0.27685E-01
 -0.28455E-01
 -0.17887E-01
 -0.11127E-01
 -0.13180E-01
 -0.13840E-01
 -0.13787E-01
 -0.14251E-01
 -0.14484E-01
 -0.13912E-01
 -0.13441E-01
 -0.13184E-01
 -0.14162E-01
 -0.12158E-01
 -0.53051E-02
 -0.29290E-02
 -0.87317E-02
 -0.23168E-01
 -0.37437E-01
 -0.50444E-01
 -0.50558E-01
 -0.38513E-01
 -0.27719E-01
 -0.24368E-01
 -0.23952E-01
 -0.18944E-01
 -0.19201E-01
 -0.20478E-01
 -0.21992E-01
 -0.22969E-01
 -0.22783E-01
 -0.22835E-01
 -0.23343E-01
 -0.23397E-01
 -0.21924E-01
 -0.19797E-01
 -0.18485E-01
 -0.17580E-01
 -0.16465E-01
 -0.15551E-01
 -0.14853E-01
 -0.14306E-01
 -0.13940E-01
 -0.13860E-01
 -0.14123E-01
 -0.14705E-01
 -0.15208E-01
 -0.15058E-01
 -0.16944E-01
 -0.18461E-01
 -0.12772E-01
 -0.13414E-01
 -0.13620E-01
 -0.13364E-01
 -0.13174E-01
 -0.13296E-01
 -0.13788E-01
 -0.67215E-02
  0.10172E-01
  0.25953E-01
  0.35874E-01
  0.41282E-01
  0.43834E-01
  0.44353E-01
  0.42976E-01
  0.38712E-01
  0.29231E-01
  0.12239E-01
 -0.54238E-02
 -0.12527E-01
 -0.12337E-01
 -0.12619E-01
 -0.12400E-01
 -0.11758E-01
 -0.12074E-01
  0.11414E-01
  0.11256E-01
  0.10910E-01
  0.10475E-01
  0.10046E-01
  0.95754E-02
  0.92404E-02
  0.88776E-02
  0.85899E-02
  0.81232E-02
  0.74984E-02
  0.67556E-02
  0.61739E-02
  0.58033E-02
  0.57017E-02
  0.57429E-02
  0.59436E-02
  0.61547E-02
  0.64183E-02
  0.66893E-02
  0.70805E-02
  0.75748E-02
  0.81403E-02
  0.88334E-02
  0.94935E-02
  0.10097E-01
  0.10589E-01
  0.10909E-01
  0.11087E-01
  0.11123E-01
  0.10945E-01
  0.10728E-01
  0.10389E-01
  0.97677E-02
  0.89280E-02
  0.77693E-02
  0.62419E-02
  0.44930E-02
  0.23672E-02
  0.00000E+00
  0.00000E+00
  0.00000E+00
  0.00000E+00
  0.00000E+00
  0.00000E+00
  0.00000E+00
  0.00000E+00
  0.00000E+00
  0.00000E+00
  0.00000E+00
  0.00000E+00
  0.00000E+00
  0.00000E+00
  0.00000E+00
  0.00000E+00
  0.00000E+00
  0.00000E+00
  0.00000E+00
  0.41819E-02
  0.55267E-02
  0.71197E-02
  0.91030E-02
  0.10924E-01
  0.11656E-01
  0.10552E-01
  0.81131E-02
  0.59065E-02
  0.42056E-02
  0.34791E-02
  0.35851E-02
  0.42652E-02
  0.51029E-02
  0.57502E-02
  0.54449E-02
  0.45660E-02
  0.30898E-02
  0.22799E-02
  0.18399E-02
  0.14736E-02
  0.98835E-03
  0.21922E-03
 -0.92817E-03
 -0.25960E-02
 -0.50840E-02
 -0.78625E-02
 -0.98642E-02
 -0.10007E-01
 -0.75630E-02
 -0.32100E-02
  0.16606E-02
  0.63287E-02
  0.10720E-01
  0.14436E-01
  0.17454E-01
  0.19879E-01
  0.21614E-01
  0.22572E-01
  0.23037E-01
  0.23482E-01
  0.24168E-01
  0.25047E-01
  0.26051E-01
  0.26992E-01
  0.27668E-01
  0.27855E-01
  0.27364E-01
  0.26087E-01
  0.24232E-01
  0.22049E-01
  0.19738E-01
  0.17687E-01
  0.15828E-01
  0.14234E-01
  0.13052E-01
  0.12182E-01
  0.11667E-01
 -0.27486E-01
  0.73640E-02
 -0.13132E-01
  0.20747E-02
  0.52527E-02
  0.11011E-01
 -0.18047E-01
  0.60868E-02
  0.34907E-02
  0.97347E-02
 -0.40726E-02
 -0.46780E-02
 -0.23453E-01
  0.89705E-02
  0.58145E-02
  0.75577E-02
 -0.37958E-03
  0.10029E-01
  0.16834E-01
  0.11036E-01
 -0.13493E-01
  0.32341E-01
  0.15755E-03
  0.35815E-01
 -0.31476E-01
 -0.37037E-02
  0.15979E-01
 -0.13836E-01
 -0.50057E-01
  0.25622E-01
  0.43586E-01
 -0.69338E-02
 -0.12252E-01
  0.10392E-01
  0.23496E-01
 -0.13708E-01
  0.42877E-02
  0.28431E-01
  0.67492E-02
  0.78155E-02
 -0.97593E-02
 -0.15889E-01
 -0.14373E-01
 -0.15565E-01
  0.19127E-02
  0.15081E-02
  0.27471E-01
 -0.13288E-01
  0.13622E-01
  0.11707E-02
  0.56724E-02
  0.66316E-02
  0.38347E-02
  0.85153E-02
  0.68102E-02
  0.36832E-02
  0.10667E-01
  0.10798E-01
 -0.18986E-02
  0.23742E-01
 -0.12178E-01
 -0.14135E-01
  0.11213E-01
 -0.13038E-01
 -0.24043E-01
 -0.25655E-01
 -0.22699E-01
 -0.26054E-01
 -0.21554E-01
 -0.27161E-01
 -0.22830E-01
 -0.29071E-01
 -0.32569E-01
 -0.34978E-01
 -0.37345E-01
 -0.39995E-01
 -0.41530E-01
 -0.44165E-01
 -0.44735E-01
 -0.46990E-01
 -0.45765E-01
 -0.46939E-01
 -0.42522E-01
 -0.42502E-01
 -0.34763E-01
 -0.33684E-01
 -0.24241E-01
 -0.22226E-01
 -0.29249E-01
 -0.18060E-01
 -0.45054E-01
 -0.25369E-01
 -0.12968E-01
 -0.22649E-01
 -0.13521E-01
 -0.16065E-01
 -0.10097E-01
 -0.11526E-01
 -0.85370E-02
 -0.59787E-02
 -0.65439E-02
 -0.85344E-02
 -0.80726E-02
 -0.33851E-02
 -0.13491E-01
 -0.33320E-02
 -0.31472E-02
  0.51844E-02
  0.50164E-02
  0.10624E-01
  0.82971E-02
 -0.95288E-02
 -0.10396E-01
 -0.19196E-01
 -0.11458E-01
 -0.13151E-01
  0.10642E-01
  0.70612E-02
 -0.13925E-01
 -0.14634E-01
 -0.12950E-01
 -0.13157E-01
 -0.14941E-01
 -0.11591E-01
 -0.89074E-02
 -0.68649E-02
 -0.93350E-02
 -0.54238E-02
 -0.79457E-02
 -0.51758E-02
 -0.97973E-02
 -0.81165E-02
 -0.64221E-02
  0.82535E-02
  0.44097E-02
 -0.28172E-02
 -0.46878E-02
 -0.92695E-02
 -0.78308E-02
 -0.13390E-01
 -0.11594E-01
 -0.37629E-02
 -0.17162E-01
 -0.13688E-01
 -0.18635E-01
 -0.13186E-01
 -0.83980E-02
 -0.72453E-02
 -0.10322E-01
 -0.31134E-02
  0.57534E-02
  0.85020E-02
  0.24336E-02
 -0.48746E-02
 -0.69055E-02
 -0.22169E-02
 -0.20497E-01
 -0.23551E-01
 -0.19377E-01
 -0.20681E-01
  0.26113E-03
 -0.21789E-01
 -0.89730E-03
 -0.36173E-02
 -0.35831E-02
 -0.65384E-02
 -0.53474E-02
 -0.81509E-02
 -0.22553E-01
 -0.62724E-02
 -0.22636E-01
 -0.86826E-02
 -0.63390E-02
 -0.82906E-02
 -0.57056E-02
 -0.74043E-02
 -0.47103E-02
 -0.59778E-02
 -0.33220E-02
 -0.42691E-02
 -0.16871E-02
 -0.22816E-02
  0.17764E-03
 -0.25748E-03
 -0.27265E-02
 -0.52401E-03
 -0.30291E-02
 -0.67585E-03
  0.16158E-02
  0.17732E-02
  0.37967E-02
  0.42981E-02
  0.60965E-02
  0.69572E-02
 -0.32942E-02
  0.84879E-02
  0.74981E-02
  0.96207E-02
 -0.22785E-01
  0.96941E-02
 -0.56027E-02
 -0.60632E-02
 -0.16781E-01
 -0.16122E-01
  0.49248E-02
 -0.41173E-02
  0.11827E-02
 -0.33621E-02
  0.57979E-03
 -0.67071E-03
  0.16690E-02
 -0.95115E-02
 -0.15597E-01
 -0.40606E-01
 -0.18435E-01
 -0.82844E-02
 -0.90044E-02
  0.21734E-02
  0.41643E-02
  0.40378E-02
  0.85241E-02
  0.10439E-01
 -0.13981E-01
 -0.12515E-01
 -0.14730E-01
 -0.10793E-01
 -0.12269E-01
  0.30641E-02
 -0.11147E-01
 -0.11861E-01
 -0.98202E-02
 -0.12444E-01
 -0.10610E-01
 -0.12966E-01
 -0.11574E-01
 -0.13817E-01
 -0.13975E-01
  0.41675E-02
  0.23908E-02
  0.58099E-02
 -0.77658E-02
 -0.86493E-02
 -0.94168E-02
 -0.14399E-01
 -0.14346E-01
  0.93236E-02
  0.10910E-01
  0.12162E-01
 -0.37953E-01
 -0.11744E-01
  0.53594E-02
 -0.10482E-01
 -0.62771E-02
 -0.67128E-02
  0.67257E-02
  0.12250E-01
  0.98592E-02
 -0.11281E-01
 -0.43451E-02
 -0.44914E-02
 -0.14716E-01
 -0.14542E-01
 -0.14733E-01
 -0.14504E-01
 -0.12274E-01
 -0.17363E-01
  0.99244E-02
  0.59481E-02
  0.71631E-02
  0.78274E-02
 -0.15458E-01
 -0.20610E-01
  0.13671E-01
 -0.14238E-01
 -0.14398E-01
 -0.14725E-01
 -0.14566E-01
 -0.26729E-02
 -0.28408E-02
  0.83825E-02
 -0.87442E-02
 -0.96933E-02
 -0.14859E-01
 -0.10487E-01
 -0.13325E-01
 -0.63216E-02
  0.61105E-02
  0.47155E-02
 -0.15202E-01
 -0.15674E-01
  0.13306E-01
  0.72729E-02
 -0.64853E-02
 -0.74121E-02
 -0.10571E-01
 -0.83313E-02
 -0.45547E-02
 -0.48950E-02
 -0.11845E-02
 -0.88425E-03
  0.26904E-02
  0.39528E-02
  0.71188E-02
  0.97387E-02
  0.11747E-01
  0.15305E-01
  0.15806E-01
  0.19721E-01
  0.18827E-01
  0.22629E-01
  0.21004E-01
  0.24107E-01
  0.22325E-01
 -0.11408E-01
  0.26371E-01
  0.26896E-01
  0.29620E-01
  0.19625E-01
  0.20764E-01
 -0.13655E-02
 -0.16506E-02
 -0.26515E-01
 -0.53539E-02
 -0.57583E-03
 -0.14115E-02
  0.22565E-02
  0.20675E-02
  0.44821E-02
  0.46725E-02
  0.44346E-02
  0.59574E-02
  0.58161E-02
  0.68941E-02
  0.67375E-02
  0.22835E-02
  0.51623E-02
  0.31842E-02
  0.59495E-02
  0.67807E-02
  0.72653E-02
  0.45872E-02
  0.74908E-02
  0.76201E-02
  0.75106E-02
  0.74085E-02
  0.76240E-02
  0.76224E-02
 -0.16008E-01
 -0.12026E-01
 -0.74086E-02
 -0.11265E-01
 -0.60843E-02
 -0.82482E-02
 -0.33246E-02
 -0.28787E-02
 -0.55330E-03
 -0.16708E-02
  0.34888E-03
 -0.22235E-02
 -0.27339E-03
 -0.39778E-02
 -0.10029E-01
  0.77464E-02
  0.73853E-02
  0.65507E-02
  0.72874E-02
 -0.47871E-02
  0.91520E-02
  0.77667E-02
 -0.31016E-02
 -0.49936E-02
 -0.45617E-02
  0.23134E-02
 -0.79004E-02
  0.60162E-02
  0.75844E-02
 -0.17349E-01
 -0.12637E-01
 -0.15447E-01
 -0.51246E-03
 -0.80073E-03
  0.63125E-02
 -0.14662E-01
 -0.14842E-01
 -0.14385E-01
 -0.45172E-01
 -0.27376E-02
 -0.48849E-02
  0.12095E-01
  0.12874E-01
 -0.17385E-01
 -0.21232E-01
  0.20173E-01
 -0.43336E-02
 -0.10131E-01
  0.22966E-01
  0.21230E-01
  0.15018E-01
  0.29034E-01
  0.31789E-01
 -0.11510E-01
 -0.14150E-01
  0.74700E-02
  0.63355E-02
  0.71572E-02
  0.79234E-02
  0.78754E-02
  0.70108E-02
  0.78193E-02
  0.71750E-02
  0.82602E-02
 -0.95014E-03
 -0.37088E-01
  0.67908E-02
  0.77267E-02
  0.86049E-02
  0.85934E-02
 -0.15791E-01
 -0.16788E-01
 -0.73427E-02
 -0.56413E-02
 -0.35862E-02
  0.79918E-02
  0.19849E-03
 -0.24575E-03
 -0.18694E-02
 -0.15336E-02
  0.36219E-03
 -0.11962E-02
  0.10951E-02
 -0.47299E-03
 -0.42157E-02
 -0.30101E-02
  0.51195E-03
 -0.19452E-02
  0.11689E-02
 -0.16810E-02
 -0.14805E-01
 -0.17889E-01
  0.82076E-02
  0.65927E-02
  0.10032E-02
 -0.24388E-02
  0.91475E-02
 -0.15080E-01
  0.19233E-02
  0.20032E-03
 -0.37393E-02
 -0.14424E-01
  0.85575E-02
 -0.72573E-02
 -0.16871E-01
 -0.19923E-01
 -0.18438E-01
 -0.21127E-01
 -0.19384E-01
 -0.21422E-01
 -0.19916E-01
 -0.21555E-01
 -0.20343E-01
 -0.22395E-01
 -0.20787E-01
 -0.23393E-01
 -0.72344E-02
  0.43149E-02
 -0.20745E-01
 -0.23498E-01
 -0.19355E-01
 -0.21616E-01
 -0.16134E-01
 -0.18180E-01
 -0.23140E-01
 -0.20133E-01
 -0.23683E-01
 -0.21494E-01
 -0.23985E-01
 -0.23551E-01
 -0.25080E-01
 -0.19922E-01
 -0.15026E-01
 -0.70557E-02
 -0.95553E-02
 -0.56738E-02
  0.61584E-02
 -0.40752E-02
  0.85782E-02
  0.73894E-02
  0.98059E-02
 -0.14756E-01
 -0.14919E-01
 -0.20400E-01
 -0.26950E-01
 -0.27430E-01
  0.57948E-02
 -0.12574E-01
 -0.12757E-01
 -0.41142E-02
 -0.24472E-01
 -0.26303E-01
 -0.22900E-01
 -0.24308E-01
 -0.16741E-01
 -0.39918E-02
  0.81521E-02
  0.30303E-01
  0.32791E-01
  0.28155E-01
  0.15793E-01
  0.85916E-03
  0.37006E-02
 -0.40810E-02
 -0.30451E-01
 -0.10122E-01
 -0.28341E-03
 -0.38075E-02
  0.44979E-03
 -0.26684E-01
 -0.23137E-01
 -0.26063E-01
  0.44697E-02
 -0.16724E-01
 -0.18304E-01
  0.13679E-01
  0.57621E-02
  0.51764E-02
 -0.18700E-01
 -0.18038E-01
 -0.22316E-01
 -0.15473E-01
 -0.19087E-01
 -0.11465E-01
 -0.94549E-02
 -0.55235E-02
 -0.67242E-02
 -0.16283E-02
 -0.24298E-02
  0.20011E-02
  0.13544E-02
  0.53676E-02
  0.44279E-02
  0.86931E-02
  0.85495E-02
  0.12318E-01
  0.12812E-01
  0.16072E-01
  0.17211E-01
  0.19782E-01
  0.21725E-01
  0.18241E-01
  0.80323E-02
  0.22924E-01
  0.25269E-01
  0.89344E-02
  0.25388E-01
  0.27792E-01
  0.20080E-01
  0.24830E-02
  0.28780E-01
  0.30314E-01
  0.28939E-01
  0.23361E-01
  0.32165E-01
  0.32548E-01
  0.43529E-03
  0.25233E-01
  0.23440E-01
  0.35471E-01
 -0.16620E-01
  0.11805E-01
  0.12383E-01
 -0.11090E-01
 -0.13060E-01
 -0.94107E-02
 -0.20139E-01
 -0.94089E-02
 -0.12939E-01
 -0.13644E-01
  0.35267E-01
 -0.11568E-01
  0.34182E-01
  0.13484E-01
  0.76269E-02
  0.85702E-02
  0.93646E-02
  0.92823E-02
 -0.15035E-01
 -0.23668E-01
  0.30060E-01
 -0.97525E-02
  0.31894E-01
  0.35051E-02
 -0.18828E-02
 -0.24009E-01
 -0.14125E-01
 -0.13971E-01
 -0.25670E-01
  0.10176E-01
  0.91224E-02
  0.10215E-01
  0.62029E-02
  0.60725E-02
  0.72569E-02
  0.61269E-02
  0.46445E-02
  0.49478E-02
  0.32279E-02
  0.37803E-02
  0.19694E-02
  0.27884E-02
  0.97995E-03
  0.20440E-02
  0.36846E-02
  0.31277E-02
  0.16997E-02
  0.29581E-02
  0.19121E-02
  0.32511E-02
  0.45264E-02
  0.27371E-02
  0.39743E-02
  0.42845E-02
  0.49047E-02
  0.50591E-02
 -0.43259E-02
 -0.12450E-01
 -0.14629E-01
 -0.13251E-01
 -0.14639E-01
 -0.12951E-01
 -0.15210E-01
 -0.13499E-01
 -0.11092E-01
 -0.10930E-01
 -0.10237E-01
 -0.69441E-02
 -0.57433E-02
 -0.89823E-03
  0.19517E-02
 -0.26376E-02
  0.63943E-02
  0.87902E-02
 -0.14706E-01
  0.32634E-01
  0.20906E-01
  0.90570E-02
 -0.95301E-02
  0.19251E-01
  0.19657E-01
 -0.15417E-01
  0.14474E-02
  0.22900E-02
  0.90889E-03
  0.32801E-02
  0.12790E-01
  0.99466E-02
  0.73087E-02
  0.76376E-02
 -0.18736E-01
  0.30730E-01
 -0.28811E-02
 -0.29117E-02
 -0.58711E-02
 -0.26156E-02
 -0.52297E-02
 -0.19600E-02
  0.97481E-02
 -0.77968E-02
  0.43229E-02
  0.53393E-02
  0.57254E-02
  0.91219E-02
  0.86595E-02
 -0.19633E-02
  0.56567E-02
  0.67821E-02
 -0.51691E-02
  0.77546E-02
  0.18124E-01
 -0.11756E-01
  0.85501E-02
  0.13253E-01
  0.23051E-01
  0.99030E-02
 -0.22665E-01
 -0.20854E-01
 -0.21833E-01
 -0.25775E-01
  0.75905E-02
 -0.13356E-01
 -0.13198E-01
 -0.12689E-01
 -0.13207E-01
  0.10035E-01
 -0.22903E-01
 -0.27105E-01
 -0.74069E-02
 -0.18022E-01
 -0.16869E-01
 -0.12795E-01
  0.25019E-01
  0.23570E-01
  0.21758E-01
  0.22216E-01
  0.20253E-01
 -0.12712E-01
 -0.16183E-01
  0.36622E-02
  0.26286E-02
  0.74272E-02
  0.50413E-02
 -0.67124E-02
 -0.15684E-01
 -0.24942E-01
  0.74085E-03
 -0.23797E-02
 -0.81179E-02
  0.67454E-02
  0.36860E-01
  0.38744E-01
 -0.12759E-01
 -0.12380E-01
  0.11664E-02
  0.25016E-02
  0.29474E-01
 -0.21937E-01
 -0.10103E-01
 -0.13305E-01
 -0.12989E-01
 -0.13514E-01
  0.11834E-01
  0.35103E-02
  0.46976E-02
 -0.17637E-01
 -0.65602E-02
 -0.22488E-01
  0.67380E-02
 -0.17864E-01
 -0.14535E-01
  0.12998E-02
 -0.61976E-02
  0.44960E-02
 -0.57672E-02
 -0.82178E-02
 -0.11151E-01
  0.38821E-02
 -0.18270E-01
  0.89428E-02
  0.89970E-02
  0.94538E-05
  0.53662E-02
 -0.17360E-01
  0.78497E-02
 -0.53008E-02
 -0.51095E-02
 -0.21546E-02
 -0.14810E-01
 -0.79657E-02
  0.62424E-02
 -0.15523E-01
 -0.14108E-01
 -0.13943E-01
 -0.14001E-01
 -0.19910E-01
 -0.20136E-01
 -0.15377E-01
  0.38553E-02
  0.65033E-02
  0.64132E-02
  0.85053E-02
  0.90494E-02
  0.89209E-02
  0.92082E-02
 -0.13655E-01
 -0.18644E-01
  0.52246E-02
  0.58080E-02
 -0.34593E-01
 -0.33757E-01
  0.47213E-03
  0.28468E-02
  0.29330E-02
  0.26365E-02
  0.10244E-01
 -0.22034E-01
 -0.33879E-02
  0.85005E-03
 -0.13249E-01
 -0.13424E-01
 -0.13709E-01
 -0.24413E-01
 -0.22952E-01
 -0.25430E-01
 -0.33843E-01
 -0.22281E-01
  0.39705E-01
 -0.72135E-02
  0.80569E-04
  0.23689E-01
  0.22694E-01
 -0.12304E-01
  0.47838E-02
  0.30810E-01
  0.30880E-01
 -0.15448E-02
  0.11020E-02
  0.14119E-02
  0.40010E-02
  0.49904E-02
  0.34428E-02
  0.70076E-02
  0.79227E-02
  0.94348E-02
 -0.13248E-01
 -0.10486E-01
 -0.53490E-02
 -0.66711E-02
 -0.13863E-01
  0.19148E-01
  0.17758E-01
  0.16173E-01
  0.14995E-01
  0.18977E-01
  0.50289E-02
  0.18078E-02
  0.12107E-01
 -0.32648E-02
 -0.46624E-02
 -0.12812E-01
 -0.12902E-01
 -0.13582E-01
 -0.13859E-01
 -0.16278E-01
  0.76313E-02
  0.77210E-02
  0.75617E-02
  0.74801E-02
  0.77430E-02
  0.72374E-02
 -0.14734E-01
 -0.14990E-01
 -0.13107E-01
 -0.32568E-01
  0.12551E-01
  0.11906E-01
 -0.12674E-01
 -0.13221E-01
 -0.11342E-01
 -0.12132E-01
 -0.77240E-02
 -0.27063E-02
  0.62344E-02
 -0.95858E-02
  0.19337E-01
  0.16580E-01
  0.25167E-01
  0.22344E-01
  0.14951E-01
  0.28504E-01
 -0.78474E-03
  0.96159E-02
  0.87415E-02
 -0.14603E-01
 -0.15030E-01
 -0.90328E-02
 -0.27915E-01
 -0.23395E-01
 -0.29499E-01
 -0.24341E-01
 -0.28526E-01
  0.26555E-01
  0.11876E-01
  0.17874E-01
  0.18169E-01
  0.19688E-01
 -0.79264E-02
 -0.79347E-02
 -0.85074E-02
  0.90617E-02
  0.86862E-02
  0.96162E-02
  0.98713E-02
  0.96888E-02
 -0.54313E-02
 -0.52227E-02
 -0.56677E-02
 -0.43996E-02
 -0.51976E-02
  0.13870E-01
  0.14719E-01
 -0.12955E-01
 -0.18820E-01
  0.37579E-02
  0.72885E-03
 -0.40573E-02
 -0.10056E-02
 -0.10751E-01
  0.56756E-02
  0.13157E-02
  0.52053E-02
  0.90563E-02
  0.83823E-02
 -0.17404E-01
 -0.18422E-01
 -0.16707E-01
 -0.15251E-01
  0.10750E-01
 -0.29837E-02
 -0.29375E-03
 -0.40473E-03
  0.84367E-02
 -0.19994E-01
 -0.20378E-01
 -0.21750E-01
 -0.17448E-01
 -0.17221E-01
 -0.16550E-01
 -0.67281E-02
 -0.20571E-01
 -0.78859E-03
  0.35352E-02
  0.34486E-02
 -0.14139E-01
  0.20659E-02
  0.14712E-02
 -0.15166E-01
 -0.14695E-01
 -0.15282E-01
 -0.14547E-01
 -0.57653E-02
  0.53390E-02
 -0.13056E-01
  0.73872E-02
  0.77817E-02
  0.79832E-02
  0.81155E-02
  0.88546E-02
  0.88192E-03
  0.29930E-01
  0.28776E-02
  0.32966E-02
  0.10366E-01
 -0.10902E-01
  0.16643E-01
  0.23302E-01
  0.27468E-01
  0.71214E-02
 -0.22855E-01
 -0.23493E-01
 -0.23451E-01
  0.35224E-01
  0.54909E-02
  0.17028E-01
 -0.77671E-03
  0.25649E-01
 -0.13825E-01
  0.25893E-01
  0.27142E-01
 -0.18897E-01
 -0.92463E-02
 -0.13729E-01
  0.15066E-01
 -0.19679E-01
 -0.23354E-01
 -0.23468E-01
 -0.22080E-01
 -0.13102E-01
  0.47385E-02
  0.54439E-02
  0.28980E-01
  0.24836E-01
  0.33565E-01
 -0.18180E-01
 -0.21185E-01
 -0.13768E-01
 -0.20311E-01
  0.99407E-02
 -0.32863E-02
 -0.46311E-03
 -0.15307E-01
 -0.26758E-01
 -0.33008E-01
 -0.39937E-01
 -0.34215E-01
  0.10655E-01
  0.50923E-02
 -0.56786E-03
  0.17428E-02
  0.67337E-02
  0.17793E-01
  0.19433E-01
  0.21255E-01
  0.14180E-01
 -0.11893E-01
 -0.10631E-01
 -0.21601E-01
 -0.23347E-01
 -0.19396E-01
  0.13508E-01
  0.18818E-01
  0.23570E-01
  0.34311E-01
  0.12402E-01
  0.61760E-02
 -0.30661E-02
 -0.14018E-01
 -0.13749E-01
  0.81812E-02
  0.84192E-02
  0.95624E-02
 -0.13046E-01
  0.82621E-02
 -0.10214E-01
 -0.11785E-01
  0.65132E-02
  0.61103E-02
  0.67798E-02
  0.62862E-02
  0.67359E-02
 -0.22356E-01
 -0.22400E-01
 -0.26983E-01
 -0.32344E-01
 -0.14852E-01
 -0.14319E-01
 -0.33908E-02
  0.61963E-02
 -0.10151E-01
 -0.14906E-01
  0.78189E-02
  0.38572E-01
  0.35788E-01
  0.39232E-01
  0.36550E-01
  0.38991E-01
  0.40659E-01
  0.61793E-02
  0.74703E-02
 -0.43542E-02
 -0.11904E-01
 -0.12309E-01
 -0.13623E-01
 -0.11313E-01
 -0.10725E-01
 -0.13674E-01
 -0.20614E-01
 -0.81711E-02
 -0.71696E-02
 -0.23293E-01
  0.10967E-01
 -0.24139E-01
 -0.30492E-01
 -0.37845E-01
 -0.13668E-01
  0.84210E-02
  0.41843E-01
 -0.42313E-01
 -0.13945E-01
 -0.14235E-01
 -0.14431E-01
 -0.12710E-01
 -0.13311E-01
 -0.17834E-01
 -0.32887E-01
 -0.30548E-02
 -0.89079E-02
 -0.87802E-02
 -0.21964E-01
  0.16632E-01
  0.74937E-02
 -0.11780E-01
 -0.13994E-01
 -0.10790E-01
 -0.12354E-01
 -0.88485E-02
 -0.94613E-02
 -0.25311E-01
 -0.25446E-01
 -0.24263E-01
 -0.54460E-02
 -0.53857E-02
 -0.22210E-01
 -0.14324E-02
  0.88133E-03
 -0.34895E-03
 -0.24921E-01
 -0.25456E-01
 -0.12807E-02
 -0.81253E-02
  0.29522E-01
  0.29136E-01
 -0.25485E-01
  0.25613E-01
  0.25305E-01
  0.27251E-01
 -0.17803E-01
 -0.17016E-01
 -0.15156E-01
  0.95830E-02
 -0.51125E-02
 -0.13639E-01
 -0.16078E-01
  0.63409E-02
  0.67119E-02
  0.60124E-02
  0.71098E-02
 -0.12850E-01
 -0.29725E-03
 -0.13150E-01
 -0.13604E-01
  0.33020E-01
 -0.15101E-01
  0.37676E-02
  0.32634E-01
  0.21093E-02
 -0.12938E-01
 -0.32522E-01
 -0.32842E-02
 -0.12196E-01
 -0.21861E-01
 -0.20572E-01
 -0.28889E-01
 -0.43511E-02
 -0.33610E-01
 -0.26611E-01
 -0.33240E-01
 -0.14591E-01
 -0.18948E-01
  0.56299E-02
 -0.10083E-02
 -0.14792E-01
 -0.14669E-01
 -0.18674E-01
 -0.14862E-01
 -0.14783E-01
 -0.15432E-01
 -0.10057E-04
 -0.94807E-03
 -0.22376E-01
  0.33448E-03
 -0.14906E-02
 -0.28029E-02
  0.63376E-04
  0.28539E-02
  0.90137E-03
 -0.99294E-03
  0.45388E-02
  0.43833E-02
  0.64787E-02
  0.48832E-02
  0.26601E-02
  0.42362E-01
  0.41682E-01
  0.21772E-01
  0.24574E-01
  0.56836E-03
  0.15244E-06
 -0.11029E-02
 -0.86071E-03
 -0.21041E-02
 -0.25966E-02
 -0.37634E-02
 -0.44702E-02
 -0.60790E-02
 -0.54717E-02
 -0.70616E-02
 -0.82823E-02
 -0.71866E-02
  0.70726E-04
 -0.32881E-02
  0.24887E-02
  0.56899E-02
  0.79861E-02
  0.11070E-01
  0.12362E-01
  0.14204E-01
  0.14848E-01
  0.16759E-01
 -0.13658E-01
 -0.14004E-01
  0.24954E-01
 -0.15775E-01
 -0.13637E-01
 -0.79576E-03
  0.57139E-02
 -0.14582E-01
  0.15079E-01
 -0.13405E-01
 -0.10198E-01
  0.26689E-01
  0.27667E-01
  0.28651E-01
  0.54205E-02
 -0.14072E-01
  0.18720E-01
 -0.12793E-01
  0.63588E-02
  0.67935E-02
  0.70064E-02
  0.69184E-02
 -0.23207E-01
 -0.34615E-02
  0.19937E-01
  0.22037E-01
  0.22306E-01
  0.16081E-02
  0.12149E-02
  0.69488E-03
  0.67461E-03
 -0.23274E-02
 -0.42423E-01
  0.92177E-02
  0.66625E-02
 -0.41290E-01
 -0.10744E-02
 -0.35343E-02
 -0.59140E-02
 -0.71088E-02
 -0.97254E-02
  0.60012E-02
  0.64349E-02
  0.14178E-01
 -0.23815E-01
 -0.13664E-01
  0.46624E-02
  0.68033E-02
 -0.14918E-01
  0.85706E-02
  0.81337E-02