# vtk DataFile Version 2.0
Unstructured Grid UFVM-ECOMOD
ASCII
DATASET UNSTRUCTURED_GRID
 POINTS         2086  float
  0.00000E+00  0.00000E+00  0.00000E+00
  0.40000E+01  0.00000E+00  0.00000E+00
  0.40000E+01  0.20000E+01  0.00000E+00
  0.00000E+00  0.20000E+01  0.00000E+00
  0.11787E+01  0.12812E+01  0.00000E+00
  0.11720E+01  0.12579E+01  0.00000E+00
  0.11523E+01  0.12361E+01  0.00000E+00
  0.11208E+01  0.12171E+01  0.00000E+00
  0.10795E+01  0.12021E+01  0.00000E+00
  0.10311E+01  0.11921E+01  0.00000E+00
  0.97842E+00  0.11877E+01  0.00000E+00
  0.92495E+00  0.11892E+01  0.00000E+00
  0.87399E+00  0.11964E+01  0.00000E+00
  0.82875E+00  0.12090E+01  0.00000E+00
  0.79207E+00  0.12262E+01  0.00000E+00
  0.76626E+00  0.12467E+01  0.00000E+00
  0.75294E+00  0.12695E+01  0.00000E+00
  0.75294E+00  0.12930E+01  0.00000E+00
  0.76626E+00  0.13158E+01  0.00000E+00
  0.79207E+00  0.13363E+01  0.00000E+00
  0.82875E+00  0.13535E+01  0.00000E+00
  0.87399E+00  0.13661E+01  0.00000E+00
  0.92495E+00  0.13733E+01  0.00000E+00
  0.97842E+00  0.13748E+01  0.00000E+00
  0.10311E+01  0.13704E+01  0.00000E+00
  0.10795E+01  0.13604E+01  0.00000E+00
  0.11208E+01  0.13454E+01  0.00000E+00
  0.11523E+01  0.13264E+01  0.00000E+00
  0.11720E+01  0.13046E+01  0.00000E+00
  0.11275E+01  0.10550E+01  0.00000E+00
  0.11246E+01  0.10357E+01  0.00000E+00
  0.11162E+01  0.10177E+01  0.00000E+00
  0.11028E+01  0.10019E+01  0.00000E+00
  0.10851E+01  0.98956E+00  0.00000E+00
  0.10644E+01  0.98129E+00  0.00000E+00
  0.10420E+01  0.97765E+00  0.00000E+00
  0.10192E+01  0.97887E+00  0.00000E+00
  0.99740E+00  0.98488E+00  0.00000E+00
  0.97809E+00  0.99529E+00  0.00000E+00
  0.96243E+00  0.10094E+01  0.00000E+00
  0.95141E+00  0.10265E+01  0.00000E+00
  0.94572E+00  0.10453E+01  0.00000E+00
  0.94572E+00  0.10647E+01  0.00000E+00
  0.95141E+00  0.10835E+01  0.00000E+00
  0.96243E+00  0.11005E+01  0.00000E+00
  0.97809E+00  0.11147E+01  0.00000E+00
  0.99740E+00  0.11251E+01  0.00000E+00
  0.10192E+01  0.11311E+01  0.00000E+00
  0.10420E+01  0.11323E+01  0.00000E+00
  0.10644E+01  0.11287E+01  0.00000E+00
  0.10851E+01  0.11204E+01  0.00000E+00
  0.11028E+01  0.11080E+01  0.00000E+00
  0.11162E+01  0.10923E+01  0.00000E+00
  0.11246E+01  0.10743E+01  0.00000E+00
  0.62875E+00  0.11344E+01  0.00000E+00
  0.62759E+00  0.10960E+01  0.00000E+00
  0.62419E+00  0.10600E+01  0.00000E+00
  0.61876E+00  0.10287E+01  0.00000E+00
  0.61163E+00  0.10040E+01  0.00000E+00
  0.60327E+00  0.98756E+00  0.00000E+00
  0.59419E+00  0.98030E+00  0.00000E+00
  0.58497E+00  0.98273E+00  0.00000E+00
  0.57617E+00  0.99469E+00  0.00000E+00
  0.56837E+00  0.10154E+01  0.00000E+00
  0.56204E+00  0.10436E+01  0.00000E+00
  0.55759E+00  0.10776E+01  0.00000E+00
  0.55529E+00  0.11150E+01  0.00000E+00
  0.55529E+00  0.11537E+01  0.00000E+00
  0.55759E+00  0.11912E+01  0.00000E+00
  0.56204E+00  0.12251E+01  0.00000E+00
  0.56837E+00  0.12533E+01  0.00000E+00
  0.57617E+00  0.12741E+01  0.00000E+00
  0.58497E+00  0.12860E+01  0.00000E+00
  0.59419E+00  0.12885E+01  0.00000E+00
  0.60327E+00  0.12812E+01  0.00000E+00
  0.61163E+00  0.12647E+01  0.00000E+00
  0.61876E+00  0.12401E+01  0.00000E+00
  0.62419E+00  0.12087E+01  0.00000E+00
  0.62759E+00  0.11728E+01  0.00000E+00
  0.10000E+00  0.00000E+00  0.00000E+00
  0.20000E+00  0.00000E+00  0.00000E+00
  0.30000E+00  0.00000E+00  0.00000E+00
  0.40000E+00  0.00000E+00  0.00000E+00
  0.50000E+00  0.00000E+00  0.00000E+00
  0.60000E+00  0.00000E+00  0.00000E+00
  0.70000E+00  0.00000E+00  0.00000E+00
  0.80000E+00  0.00000E+00  0.00000E+00
  0.90000E+00  0.00000E+00  0.00000E+00
  0.10000E+01  0.00000E+00  0.00000E+00
  0.11000E+01  0.00000E+00  0.00000E+00
  0.12000E+01  0.00000E+00  0.00000E+00
  0.13000E+01  0.00000E+00  0.00000E+00
  0.14000E+01  0.00000E+00  0.00000E+00
  0.15000E+01  0.00000E+00  0.00000E+00
  0.16000E+01  0.00000E+00  0.00000E+00
  0.17000E+01  0.00000E+00  0.00000E+00
  0.18000E+01  0.00000E+00  0.00000E+00
  0.19000E+01  0.00000E+00  0.00000E+00
  0.20000E+01  0.00000E+00  0.00000E+00
  0.21000E+01  0.00000E+00  0.00000E+00
  0.22000E+01  0.00000E+00  0.00000E+00
  0.23000E+01  0.00000E+00  0.00000E+00
  0.24000E+01  0.00000E+00  0.00000E+00
  0.25000E+01  0.00000E+00  0.00000E+00
  0.26000E+01  0.00000E+00  0.00000E+00
  0.27000E+01  0.00000E+00  0.00000E+00
  0.28000E+01  0.00000E+00  0.00000E+00
  0.29000E+01  0.00000E+00  0.00000E+00
  0.30000E+01  0.00000E+00  0.00000E+00
  0.31000E+01  0.00000E+00  0.00000E+00
  0.32000E+01  0.00000E+00  0.00000E+00
  0.33000E+01  0.00000E+00  0.00000E+00
  0.34000E+01  0.00000E+00  0.00000E+00
  0.35000E+01  0.00000E+00  0.00000E+00
  0.36000E+01  0.00000E+00  0.00000E+00
  0.37000E+01  0.00000E+00  0.00000E+00
  0.38000E+01  0.00000E+00  0.00000E+00
  0.39000E+01  0.00000E+00  0.00000E+00
  0.40000E+01  0.10000E+00  0.00000E+00
  0.40000E+01  0.20000E+00  0.00000E+00
  0.40000E+01  0.30000E+00  0.00000E+00
  0.40000E+01  0.40000E+00  0.00000E+00
  0.40000E+01  0.50000E+00  0.00000E+00
  0.40000E+01  0.60000E+00  0.00000E+00
  0.40000E+01  0.70000E+00  0.00000E+00
  0.40000E+01  0.80000E+00  0.00000E+00
  0.40000E+01  0.90000E+00  0.00000E+00
  0.40000E+01  0.10000E+01  0.00000E+00
  0.40000E+01  0.11000E+01  0.00000E+00
  0.40000E+01  0.12000E+01  0.00000E+00
  0.40000E+01  0.13000E+01  0.00000E+00
  0.40000E+01  0.14000E+01  0.00000E+00
  0.40000E+01  0.15000E+01  0.00000E+00
  0.40000E+01  0.16000E+01  0.00000E+00
  0.40000E+01  0.17000E+01  0.00000E+00
  0.40000E+01  0.18000E+01  0.00000E+00
  0.40000E+01  0.19000E+01  0.00000E+00
  0.39000E+01  0.20000E+01  0.00000E+00
  0.38000E+01  0.20000E+01  0.00000E+00
  0.37000E+01  0.20000E+01  0.00000E+00
  0.36000E+01  0.20000E+01  0.00000E+00
  0.35000E+01  0.20000E+01  0.00000E+00
  0.34000E+01  0.20000E+01  0.00000E+00
  0.33000E+01  0.20000E+01  0.00000E+00
  0.32000E+01  0.20000E+01  0.00000E+00
  0.31000E+01  0.20000E+01  0.00000E+00
  0.30000E+01  0.20000E+01  0.00000E+00
  0.29000E+01  0.20000E+01  0.00000E+00
  0.28000E+01  0.20000E+01  0.00000E+00
  0.27000E+01  0.20000E+01  0.00000E+00
  0.26000E+01  0.20000E+01  0.00000E+00
  0.25000E+01  0.20000E+01  0.00000E+00
  0.24000E+01  0.20000E+01  0.00000E+00
  0.23000E+01  0.20000E+01  0.00000E+00
  0.22000E+01  0.20000E+01  0.00000E+00
  0.21000E+01  0.20000E+01  0.00000E+00
  0.20000E+01  0.20000E+01  0.00000E+00
  0.19000E+01  0.20000E+01  0.00000E+00
  0.18000E+01  0.20000E+01  0.00000E+00
  0.17000E+01  0.20000E+01  0.00000E+00
  0.16000E+01  0.20000E+01  0.00000E+00
  0.15000E+01  0.20000E+01  0.00000E+00
  0.14000E+01  0.20000E+01  0.00000E+00
  0.13000E+01  0.20000E+01  0.00000E+00
  0.12000E+01  0.20000E+01  0.00000E+00
  0.11000E+01  0.20000E+01  0.00000E+00
  0.10000E+01  0.20000E+01  0.00000E+00
  0.90000E+00  0.20000E+01  0.00000E+00
  0.80000E+00  0.20000E+01  0.00000E+00
  0.70000E+00  0.20000E+01  0.00000E+00
  0.60000E+00  0.20000E+01  0.00000E+00
  0.50000E+00  0.20000E+01  0.00000E+00
  0.40000E+00  0.20000E+01  0.00000E+00
  0.30000E+00  0.20000E+01  0.00000E+00
  0.20000E+00  0.20000E+01  0.00000E+00
  0.10000E+00  0.20000E+01  0.00000E+00
  0.00000E+00  0.19000E+01  0.00000E+00
  0.00000E+00  0.18000E+01  0.00000E+00
  0.00000E+00  0.17000E+01  0.00000E+00
  0.00000E+00  0.16000E+01  0.00000E+00
  0.00000E+00  0.15000E+01  0.00000E+00
  0.00000E+00  0.14000E+01  0.00000E+00
  0.00000E+00  0.13000E+01  0.00000E+00
  0.00000E+00  0.12000E+01  0.00000E+00
  0.00000E+00  0.11000E+01  0.00000E+00
  0.00000E+00  0.10000E+01  0.00000E+00
  0.00000E+00  0.90000E+00  0.00000E+00
  0.00000E+00  0.80000E+00  0.00000E+00
  0.00000E+00  0.70000E+00  0.00000E+00
  0.00000E+00  0.60000E+00  0.00000E+00
  0.00000E+00  0.50000E+00  0.00000E+00
  0.00000E+00  0.40000E+00  0.00000E+00
  0.00000E+00  0.30000E+00  0.00000E+00
  0.00000E+00  0.20000E+00  0.00000E+00
  0.00000E+00  0.10000E+00  0.00000E+00
  0.11961E+01  0.12633E+01  0.00000E+00
  0.21488E+01  0.93320E-01  0.00000E+00
  0.61866E+00  0.98978E+00  0.00000E+00
  0.20489E+01  0.19184E+01  0.00000E+00
  0.25498E+01  0.19136E+01  0.00000E+00
  0.29499E+01  0.86560E-01  0.00000E+00
  0.93236E+00  0.10310E+01  0.00000E+00
  0.17510E+01  0.72450E-01  0.00000E+00
  0.29467E+01  0.19168E+01  0.00000E+00
  0.25487E+01  0.85720E-01  0.00000E+00
  0.76221E+00  0.13471E+01  0.00000E+00
  0.39134E+01  0.10499E+01  0.00000E+00
  0.11777E+01  0.13352E+01  0.00000E+00
  0.75033E+00  0.75620E-01  0.00000E+00
  0.13476E+01  0.80200E-01  0.00000E+00
  0.10427E+01  0.86980E-01  0.00000E+00
  0.16534E+01  0.19146E+01  0.00000E+00
  0.33491E+01  0.86080E-01  0.00000E+00
  0.76560E-01  0.54986E+00  0.00000E+00
  0.33536E+01  0.19187E+01  0.00000E+00
  0.64251E+00  0.10384E+01  0.00000E+00
  0.54363E+00  0.10247E+01  0.00000E+00
  0.39158E+01  0.64933E+00  0.00000E+00
  0.53844E+00  0.12429E+01  0.00000E+00
  0.11152E+01  0.13830E+01  0.00000E+00
  0.39057E+01  0.13553E+01  0.00000E+00
  0.45348E+00  0.19192E+01  0.00000E+00
  0.84329E+00  0.13986E+01  0.00000E+00
  0.10069E+01  0.14153E+01  0.00000E+00
  0.79140E-01  0.15509E+01  0.00000E+00
  0.51664E+00  0.11388E+01  0.00000E+00
  0.13387E+01  0.19132E+01  0.00000E+00
  0.61809E+00  0.12788E+01  0.00000E+00
  0.44149E+00  0.86000E-01  0.00000E+00
  0.82010E-01  0.85167E+00  0.00000E+00
  0.79235E+00  0.11912E+01  0.00000E+00
  0.73934E+00  0.19100E+01  0.00000E+00
  0.97720E-01  0.12541E+01  0.00000E+00
  0.36625E+01  0.99060E-01  0.00000E+00
  0.36500E+01  0.19142E+01  0.00000E+00
  0.10534E+01  0.19002E+01  0.00000E+00
  0.93232E+00  0.10799E+01  0.00000E+00
  0.73234E+00  0.12821E+01  0.00000E+00
  0.11221E+01  0.11125E+01  0.00000E+00
  0.38972E+01  0.16498E+01  0.00000E+00
  0.39125E+01  0.34987E+00  0.00000E+00
  0.91360E-01  0.10554E+01  0.00000E+00
  0.66195E+00  0.11154E+01  0.00000E+00
  0.82340E-01  0.34870E+00  0.00000E+00
  0.18502E+01  0.19156E+01  0.00000E+00
  0.15459E+01  0.76350E-01  0.00000E+00
  0.19483E+01  0.85500E-01  0.00000E+00
[...]
 POINT_DATA         2086
  
 SCALARS WL      float 1
 LOOKUP_TABLE default
  0.11212E-01
  0.11933E-02
  0.49290E-02
  0.22570E-01
 -0.32032E-01
 -0.33565E-01
 -0.22786E-01
 -0.13044E-01
 -0.13173E-01
 -0.13834E-01
 -0.13351E-01
 -0.13569E-01
 -0.13666E-01
 -0.12966E-01
 -0.12480E-01
 -0.12226E-01
 -0.13396E-01
 -0.11632E-01
 -0.47778E-02
 -0.21883E-02
 -0.74110E-02
 -0.21492E-01
 -0.35702E-01
 -0.49486E-01
 -0.52845E-01
 -0.45627E-01
 -0.34542E-01
 -0.29218E-01
 -0.28832E-01
 -0.18316E-01
 -0.16058E-01
 -0.15625E-01
 -0.16601E-01
 -0.17843E-01
 -0.18441E-01
 -0.19383E-01
 -0.20967E-01
 -0.22137E-01
 -0.21465E-01
 -0.19454E-01
 -0.17955E-01
 -0.16762E-01
 -0.15724E-01
 -0.14917E-01
 -0.14306E-01
 -0.13851E-01
 -0.13601E-01
 -0.13759E-01
 -0.14369E-01
 -0.15365E-01
 -0.16230E-01
 -0.16817E-01
 -0.19587E-01
 -0.20098E-01
 -0.11528E-01
 -0.12203E-01
 -0.12390E-01
 -0.12088E-01
 -0.11847E-01
 -0.11922E-01
 -0.12482E-01
 -0.58055E-02
  0.10572E-01
  0.26018E-01
  0.35740E-01
  0.41013E-01
  0.43486E-01
  0.43977E-01
  0.42599E-01
  0.38360E-01
  0.28981E-01
  0.12227E-01
 -0.49378E-02
 -0.11500E-01
 -0.11210E-01
 -0.11659E-01
 -0.11408E-01
 -0.10476E-01
 -0.10745E-01
  0.11069E-01
  0.10720E-01
  0.10132E-01
  0.93994E-02
  0.86300E-02
  0.77943E-02
  0.71797E-02
  0.67176E-02
  0.65664E-02
  0.64848E-02
  0.63519E-02
  0.61039E-02
  0.58284E-02
  0.55192E-02
  0.53779E-02
  0.52808E-02
  0.52886E-02
  0.52851E-02
  0.53022E-02
  0.52943E-02
  0.53532E-02
  0.54661E-02
  0.56564E-02
  0.60411E-02
  0.65180E-02
  0.70805E-02
  0.76552E-02
  0.81449E-02
  0.85194E-02
  0.87470E-02
  0.87280E-02
  0.86676E-02
  0.85497E-02
  0.82108E-02
  0.77150E-02
  0.69372E-02
  0.58288E-02
  0.44276E-02
  0.25245E-02
  0.00000E+00
  0.00000E+00
  0.00000E+00
  0.00000E+00
  0.00000E+00
  0.00000E+00
  0.00000E+00
  0.00000E+00
  0.00000E+00
  0.00000E+00
  0.00000E+00
  0.00000E+00
  0.00000E+00
  0.00000E+00
  0.00000E+00
  0.00000E+00
  0.00000E+00
  0.00000E+00
  0.00000E+00
  0.66536E-02
  0.88807E-02
  0.10095E-01
  0.10796E-01
  0.11173E-01
  0.10748E-01
  0.91842E-02
  0.73092E-02
  0.62121E-02
  0.54726E-02
  0.52190E-02
  0.52579E-02
  0.54535E-02
  0.58100E-02
  0.62607E-02
  0.65277E-02
  0.64855E-02
  0.58122E-02
  0.55245E-02
  0.51100E-02
  0.44434E-02
  0.36063E-02
  0.25224E-02
  0.10961E-02
 -0.84511E-03
 -0.36631E-02
 -0.67188E-02
 -0.89046E-02
 -0.91684E-02
 -0.68254E-02
 -0.25675E-02
  0.22188E-02
  0.68473E-02
  0.11223E-01
  0.14940E-01
  0.17946E-01
  0.20295E-01
  0.21840E-01
  0.22508E-01
  0.22676E-01
  0.23030E-01
  0.23597E-01
  0.24345E-01
  0.25227E-01
  0.26082E-01
  0.26715E-01
  0.26906E-01
  0.26446E-01
  0.25232E-01
  0.23452E-01
  0.21347E-01
  0.19117E-01
  0.17139E-01
  0.15351E-01
  0.13829E-01
  0.12710E-01
  0.11895E-01
  0.11416E-01
 -0.32022E-01
  0.54265E-02
 -0.11782E-01
  0.53838E-02
  0.58631E-02
  0.85682E-02
 -0.17241E-01
  0.52562E-02
  0.50718E-02
  0.67879E-02
 -0.35081E-02
 -0.22899E-02
 -0.28386E-01
  0.69164E-02
  0.54506E-02
  0.62249E-02
  0.18092E-02
  0.83031E-02
  0.16254E-01
  0.98045E-02
 -0.12239E-01
  0.32256E-01
  0.49183E-03
  0.35499E-01
 -0.38864E-01
 -0.29606E-02
  0.16477E-01
 -0.12421E-01
 -0.49781E-01
  0.24973E-01
  0.43215E-01
 -0.57385E-02
 -0.11204E-01
  0.91880E-02
  0.22706E-01
 -0.12729E-01
  0.48397E-02
  0.27524E-01
  0.61344E-02
  0.10121E-01
 -0.89615E-02
 -0.15171E-01
 -0.13818E-01
 -0.17754E-01
  0.28520E-02
  0.13821E-02
  0.26564E-01
 -0.12109E-01
  0.13172E-01
  0.39810E-02
  0.52060E-02
  0.53210E-02
  0.61813E-02
  0.58974E-02
  0.65616E-02
  0.50971E-02
  0.78612E-02
  0.86652E-02
 -0.69771E-03
  0.23393E-01
 -0.10956E-01
 -0.17393E-01
  0.10547E-01
 -0.12096E-01
 -0.28515E-01
 -0.30035E-01
 -0.27017E-01
 -0.30356E-01
 -0.25682E-01
 -0.31304E-01
 -0.27090E-01
 -0.33212E-01
 -0.37212E-01
 -0.39502E-01
 -0.42258E-01
 -0.44615E-01
 -0.46388E-01
 -0.48296E-01
 -0.48779E-01
 -0.49553E-01
 -0.47786E-01
 -0.46585E-01
 -0.41747E-01
 -0.38666E-01
 -0.31408E-01
 -0.27738E-01
 -0.20119E-01
 -0.16947E-01
 -0.22005E-01
 -0.13086E-01
 -0.47566E-01
 -0.29676E-01
 -0.10139E-01
 -0.16154E-01
 -0.98824E-02
 -0.11675E-01
 -0.81005E-02
 -0.93028E-02
 -0.77684E-02
 -0.55884E-02
 -0.67506E-02
 -0.85934E-02
 -0.89528E-02
 -0.40012E-02
 -0.11294E-01
 -0.25882E-02
 -0.23411E-02
  0.50645E-02
  0.55903E-02
  0.96407E-02
  0.85947E-02
 -0.10261E-01
 -0.11716E-01
 -0.17127E-01
 -0.12405E-01
 -0.13600E-01
  0.93534E-02
  0.70100E-02
 -0.13903E-01
 -0.13005E-01
 -0.11569E-01
 -0.95375E-02
 -0.11011E-01
 -0.73290E-02
 -0.47477E-02
 -0.33952E-02
 -0.59519E-02
 -0.31257E-02
 -0.59661E-02
 -0.40531E-02
 -0.98510E-02
 -0.76210E-02
 -0.66031E-02
  0.69999E-02
  0.42376E-02
 -0.23371E-02
 -0.52951E-02
 -0.10703E-01
 -0.89913E-02
 -0.14866E-01
 -0.11876E-01
 -0.72734E-03
 -0.16957E-01
 -0.12290E-01
 -0.15939E-01
 -0.10561E-01
 -0.73553E-02
 -0.58244E-02
 -0.77443E-02
 -0.38647E-02
  0.45936E-02
  0.63656E-02
  0.21116E-02
 -0.39155E-02
 -0.52178E-02
 -0.20538E-02
 -0.25282E-01
 -0.26961E-01
 -0.22902E-01
 -0.22322E-01
  0.10188E-02
 -0.16380E-01
 -0.49302E-03
 -0.21729E-02
 -0.25794E-02
 -0.45817E-02
 -0.39341E-02
 -0.59864E-02
 -0.21563E-01
 -0.46619E-02
 -0.19399E-01
 -0.65508E-02
 -0.47240E-02
 -0.63660E-02
 -0.42148E-02
 -0.57475E-02
 -0.33992E-02
 -0.46013E-02
 -0.22226E-02
 -0.31540E-02
 -0.81832E-03
 -0.14208E-02
  0.79577E-03
  0.35964E-03
 -0.19143E-02
  0.67416E-04
 -0.22775E-02
 -0.12112E-03
  0.19952E-02
  0.21226E-02
  0.39693E-02
  0.44480E-02
  0.60670E-02
  0.69106E-02
 -0.25920E-02
  0.82647E-02
  0.72889E-02
  0.92251E-02
 -0.18070E-01
  0.94626E-02
 -0.47560E-02
 -0.52665E-02
 -0.19011E-01
 -0.16906E-01
  0.50609E-02
 -0.30760E-02
  0.70631E-03
 -0.22229E-02
  0.11685E-02
 -0.79316E-03
  0.92455E-03
 -0.82222E-02
 -0.11508E-01
 -0.41983E-01
 -0.20009E-01
 -0.74087E-02
 -0.81764E-02
  0.15607E-02
  0.30832E-02
  0.27516E-02
  0.81357E-02
  0.98680E-02
 -0.15525E-01
 -0.12906E-01
 -0.14217E-01
 -0.10214E-01
 -0.10800E-01
  0.48321E-02
 -0.10316E-01
 -0.11057E-01
 -0.89798E-02
 -0.11559E-01
 -0.97002E-02
 -0.11933E-01
 -0.10578E-01
 -0.12828E-01
 -0.12855E-01
  0.34134E-02
  0.20712E-02
  0.46096E-02
 -0.50657E-02
 -0.73223E-02
 -0.73765E-02
 -0.13340E-01
 -0.13220E-01
  0.87294E-02
  0.10166E-01
  0.11457E-01
 -0.43013E-01
 -0.12655E-01
  0.46150E-02
 -0.83955E-02
 -0.44314E-02
 -0.44064E-02
  0.55412E-02
  0.11415E-01
  0.86209E-02
 -0.84545E-02
 -0.21478E-02
 -0.20757E-02
 -0.13663E-01
 -0.13417E-01
 -0.13859E-01
 -0.16668E-01
 -0.13333E-01
 -0.19585E-01
  0.91215E-02
  0.51996E-02
  0.59893E-02
  0.62716E-02
 -0.16502E-01
 -0.21834E-01
  0.12881E-01
 -0.13057E-01
 -0.13240E-01
 -0.13600E-01
 -0.13420E-01
 -0.24844E-03
 -0.42195E-03
  0.77481E-02
 -0.78705E-02
 -0.87484E-02
 -0.13739E-01
 -0.95501E-02
 -0.12501E-01
 -0.49966E-02
  0.53318E-02
  0.43778E-02
 -0.14209E-01
 -0.14900E-01
  0.12436E-01
  0.61509E-02
 -0.56852E-02
 -0.65471E-02
 -0.95377E-02
 -0.73878E-02
 -0.37989E-02
 -0.40813E-02
 -0.56601E-03
 -0.23595E-03
  0.31408E-02
  0.43976E-02
  0.73740E-02
  0.99502E-02
  0.11799E-01
  0.15296E-01
  0.15670E-01
  0.19521E-01
  0.18527E-01
  0.22264E-01
  0.20545E-01
  0.23599E-01
  0.21736E-01
 -0.10278E-01
  0.25942E-01
  0.26334E-01
  0.29127E-01
  0.19074E-01
  0.20099E-01
  0.11599E-02
  0.79831E-03
 -0.31265E-01
 -0.17504E-02
  0.16630E-02
  0.11005E-02
  0.36174E-02
  0.33676E-02
  0.50389E-02
  0.49192E-02
  0.50903E-02
  0.59608E-02
  0.58991E-02
  0.63744E-02
  0.62801E-02
  0.31782E-02
  0.48612E-02
  0.32561E-02
  0.49522E-02
  0.57234E-02
  0.56865E-02
  0.36293E-02
  0.59714E-02
  0.57975E-02
  0.64976E-02
  0.64278E-02
  0.56124E-02
  0.55664E-02
 -0.13172E-01
 -0.85397E-02
 -0.53763E-02
 -0.75591E-02
 -0.42209E-02
 -0.50905E-02
 -0.20307E-02
 -0.20823E-02
 -0.11568E-03
 -0.13079E-02
  0.44577E-03
 -0.20648E-02
 -0.20800E-03
 -0.18801E-02
 -0.55881E-02
  0.54517E-02
  0.52030E-02
  0.60762E-02
  0.62788E-02
 -0.39314E-02
  0.82533E-02
  0.70512E-02
 -0.28087E-02
 -0.46525E-02
 -0.41879E-02
  0.23112E-02
 -0.95673E-02
  0.52907E-02
  0.64904E-02
 -0.20842E-01
 -0.11610E-01
 -0.14561E-01
  0.21135E-02
  0.18066E-02
  0.45015E-02
 -0.13538E-01
 -0.13751E-01
 -0.13228E-01
 -0.41214E-01
 -0.51824E-03
 -0.24563E-02
  0.11155E-01
  0.11960E-01
 -0.17688E-01
 -0.21203E-01
  0.20088E-01
 -0.14077E-02
 -0.53007E-02
  0.22269E-01
  0.20482E-01
  0.14199E-01
  0.28414E-01
  0.31234E-01
 -0.11871E-01
 -0.12938E-01
  0.56002E-02
  0.57528E-02
  0.60665E-02
  0.64392E-02
  0.63397E-02
  0.57771E-02
  0.61907E-02
  0.61526E-02
  0.68508E-02
 -0.37769E-03
 -0.41233E-01
  0.53723E-02
  0.59825E-02
  0.66622E-02
  0.65983E-02
 -0.14850E-01
 -0.16014E-01
 -0.64625E-02
 -0.48756E-02
 -0.26790E-02
  0.65030E-02
  0.30053E-02
  0.25641E-02
  0.56522E-03
  0.10149E-02
  0.34007E-02
  0.15734E-02
  0.41987E-02
  0.23571E-02
 -0.15340E-02
 -0.42981E-03
  0.27585E-02
 -0.32016E-03
  0.24480E-02
 -0.12022E-02
 -0.13580E-01
 -0.16760E-01
  0.56811E-02
  0.44208E-02
  0.15009E-02
 -0.30228E-02
  0.92464E-02
 -0.13971E-01
  0.23088E-02
 -0.88473E-04
 -0.52048E-02
 -0.13295E-01
  0.66614E-02
 -0.62419E-02
 -0.15257E-01
 -0.18239E-01
 -0.16216E-01
 -0.18580E-01
 -0.16402E-01
 -0.17964E-01
 -0.16213E-01
 -0.17415E-01
 -0.16051E-01
 -0.17691E-01
 -0.15878E-01
 -0.17929E-01
 -0.45162E-02
  0.49511E-02
 -0.15213E-01
 -0.17008E-01
 -0.13423E-01
 -0.14950E-01
 -0.10350E-01
 -0.12181E-01
 -0.16375E-01
 -0.14290E-01
 -0.17664E-01
 -0.16823E-01
 -0.19902E-01
 -0.21225E-01
 -0.23840E-01
 -0.17135E-01
 -0.13957E-01
 -0.90221E-02
 -0.11812E-01
 -0.67891E-02
  0.65812E-02
 -0.23126E-02
  0.75315E-02
  0.65388E-02
  0.86675E-02
 -0.13717E-01
 -0.13934E-01
 -0.19341E-01
 -0.27070E-01
 -0.28619E-01
  0.51677E-02
 -0.11387E-01
 -0.11503E-01
 -0.34138E-02
 -0.24814E-01
 -0.28654E-01
 -0.24655E-01
 -0.27486E-01
 -0.11108E-01
 -0.20137E-02
  0.68480E-02
  0.29625E-01
  0.32177E-01
  0.27423E-01
  0.15546E-01
  0.77236E-03
  0.19951E-02
 -0.32426E-02
 -0.33499E-01
 -0.10576E-01
  0.23913E-02
 -0.47223E-03
  0.19847E-02
 -0.27362E-01
 -0.22565E-01
 -0.27282E-01
  0.41555E-02
 -0.15794E-01
 -0.17458E-01
  0.12997E-01
  0.47202E-02
  0.39581E-02
 -0.18019E-01
 -0.17124E-01
 -0.21341E-01
 -0.14428E-01
 -0.17911E-01
 -0.10383E-01
 -0.84960E-02
 -0.45763E-02
 -0.56739E-02
 -0.71893E-03
 -0.14501E-02
  0.28492E-02
  0.22425E-02
  0.61357E-02
  0.52006E-02
  0.93580E-02
  0.91828E-02
  0.12861E-01
  0.13295E-01
  0.16475E-01
  0.17519E-01
  0.20034E-01
  0.21871E-01
  0.18587E-01
  0.86184E-02
  0.23028E-01
  0.25253E-01
  0.95957E-02
  0.25332E-01
  0.27605E-01
  0.20250E-01
  0.32721E-02
  0.28614E-01
  0.30007E-01
  0.28585E-01
  0.23436E-01
  0.31882E-01
  0.32142E-01
  0.13231E-02
  0.25135E-01
  0.23488E-01
  0.35102E-01
 -0.16011E-01
  0.10796E-01
  0.11470E-01
 -0.90010E-02
 -0.97715E-02
 -0.75315E-02
 -0.14448E-01
 -0.74014E-02
 -0.11514E-01
 -0.12075E-01
  0.34784E-01
 -0.63420E-02
  0.33697E-01
  0.12654E-01
  0.57822E-02
  0.65346E-02
  0.72395E-02
  0.71895E-02
 -0.10831E-01
 -0.17351E-01
  0.29890E-01
 -0.86638E-02
  0.31348E-01
  0.46847E-02
 -0.21680E-02
 -0.18808E-01
 -0.12962E-01
 -0.12838E-01
 -0.19779E-01
  0.70897E-02
  0.60147E-02
  0.65418E-02
  0.57545E-02
  0.54893E-02
  0.62245E-02
  0.53530E-02
  0.43489E-02
  0.44452E-02
  0.31860E-02
  0.34965E-02
  0.20956E-02
  0.26202E-02
  0.11636E-02
  0.18761E-02
  0.32484E-02
  0.26598E-02
  0.13860E-02
  0.23159E-02
  0.12711E-02
  0.22991E-02
  0.39220E-02
  0.16331E-02
  0.26267E-02
  0.32161E-02
  0.35011E-02
  0.32585E-02
 -0.34886E-02
 -0.11996E-01
 -0.14178E-01
 -0.12833E-01
 -0.14191E-01
 -0.12506E-01
 -0.14723E-01
 -0.12937E-01
 -0.10581E-01
 -0.10264E-01
 -0.97766E-02
 -0.63722E-02
 -0.50752E-02
 -0.33218E-03
  0.24728E-02
 -0.20480E-02
  0.54000E-02
  0.55205E-02
 -0.13735E-01
  0.32015E-01
  0.21229E-01
  0.74142E-02
 -0.91334E-02
  0.18523E-01
  0.18877E-01
 -0.14293E-01
  0.46481E-02
  0.53987E-02
 -0.69699E-03
  0.20009E-02
  0.12021E-01
  0.77931E-02
  0.61300E-02
  0.60510E-02
 -0.23434E-01
  0.29996E-01
 -0.24659E-02
 -0.22328E-02
 -0.44941E-02
 -0.16024E-02
 -0.33851E-02
 -0.83122E-03
  0.76839E-02
 -0.69491E-02
  0.39732E-02
  0.47938E-02
  0.39782E-02
  0.77750E-02
  0.50097E-02
 -0.13394E-02
  0.60751E-02
  0.69351E-02
 -0.45659E-02
  0.79983E-02
  0.18117E-01
 -0.10606E-01
  0.89489E-02
  0.13510E-01
  0.22279E-01
  0.85607E-02
 -0.19741E-01
 -0.23561E-01
 -0.25345E-01
 -0.29798E-01
  0.56716E-02
 -0.12095E-01
 -0.11926E-01
 -0.11383E-01
 -0.11922E-01
  0.77876E-02
 -0.26994E-01
 -0.31644E-01
 -0.62883E-02
 -0.17070E-01
 -0.15807E-01
 -0.15856E-01
  0.24868E-01
  0.23574E-01
  0.21950E-01
  0.22367E-01
  0.20569E-01
 -0.11933E-01
 -0.11712E-01
  0.27148E-02
  0.17517E-02
  0.50420E-02
  0.40229E-02
 -0.57495E-02
 -0.17574E-01
 -0.19365E-01
  0.27636E-02
  0.79745E-03
 -0.62379E-02
  0.65513E-02
  0.36421E-01
  0.38366E-01
 -0.11441E-01
 -0.11044E-01
  0.52768E-03
  0.13344E-02
  0.29134E-01
 -0.21786E-01
 -0.80823E-02
 -0.12337E-01
 -0.11997E-01
 -0.12488E-01
  0.10966E-01
  0.35244E-02
  0.76756E-02
 -0.13931E-01
 -0.33592E-02
 -0.18115E-01
  0.44262E-02
 -0.13187E-01
 -0.13953E-01
  0.16759E-02
 -0.47968E-02
  0.38400E-02
 -0.50118E-02
 -0.60270E-02
 -0.85373E-02
  0.44397E-02
 -0.21331E-01
  0.74317E-02
  0.72641E-02
  0.51666E-03
  0.53309E-02
 -0.12339E-01
  0.66854E-02
 -0.42254E-02
 -0.36492E-02
 -0.10649E-02
 -0.13934E-01
 -0.54684E-02
  0.45949E-02
 -0.14864E-01
 -0.12921E-01
 -0.12761E-01
 -0.12796E-01
 -0.19100E-01
 -0.19491E-01
 -0.14275E-01
  0.39777E-02
  0.60129E-02
  0.58274E-02
  0.66039E-02
  0.68054E-02
  0.66230E-02
  0.69792E-02
 -0.12830E-01
 -0.22103E-01
  0.45184E-02
  0.50679E-02
 -0.28403E-01
 -0.29791E-01
 -0.30175E-03
  0.28486E-02
  0.28916E-02
  0.24855E-02
  0.65738E-02
 -0.21074E-01
 -0.26519E-02
  0.15608E-02
 -0.11959E-01
 -0.12159E-01
 -0.12442E-01
 -0.29720E-01
 -0.27631E-01
 -0.31374E-01
 -0.39706E-01
 -0.27242E-01
  0.39298E-01
 -0.58678E-02
  0.18439E-02
  0.23623E-01
  0.22760E-01
 -0.10558E-01
  0.39942E-02
  0.30110E-01
  0.30119E-01
 -0.39701E-03
  0.24037E-02
  0.20811E-02
  0.51506E-02
  0.51503E-02
  0.52926E-02
  0.76388E-02
  0.75298E-02
  0.78528E-02
 -0.12022E-01
 -0.59195E-02
 -0.16313E-02
 -0.27056E-02
 -0.12828E-01
  0.19492E-01
  0.18183E-01
  0.16633E-01
  0.15491E-01
  0.19382E-01
  0.19363E-02
 -0.11899E-02
  0.11425E-01
 -0.26139E-02
 -0.26733E-02
 -0.11915E-01
 -0.12022E-01
 -0.12839E-01
 -0.13128E-01
 -0.13751E-01
  0.62349E-02
  0.60010E-02
  0.57956E-02
  0.56848E-02
  0.58779E-02
  0.55413E-02
 -0.10628E-01
 -0.15782E-01
 -0.14096E-01
 -0.24365E-01
  0.13101E-01
  0.12445E-01
 -0.11300E-01
 -0.11842E-01
 -0.10108E-01
 -0.10815E-01
 -0.66480E-02
 -0.18624E-02
  0.67409E-02
 -0.84082E-02
  0.19529E-01
  0.16807E-01
  0.25193E-01
  0.22375E-01
  0.15180E-01
  0.28381E-01
 -0.23432E-04
  0.95592E-02
  0.71782E-02
 -0.13738E-01
 -0.14276E-01
 -0.64550E-02
 -0.26865E-01
 -0.22084E-01
 -0.33897E-01
 -0.28887E-01
 -0.33348E-01
  0.26251E-01
  0.11534E-01
  0.17096E-01
  0.17383E-01
  0.18906E-01
 -0.66884E-02
 -0.83022E-02
 -0.63539E-02
  0.70584E-02
  0.73695E-02
  0.70969E-02
  0.74027E-02
  0.78038E-02
 -0.45079E-02
 -0.45300E-02
 -0.46958E-02
 -0.35632E-02
 -0.41696E-02
  0.13162E-01
  0.13943E-01
 -0.11626E-01
 -0.18166E-01
  0.43200E-02
  0.13817E-02
 -0.20150E-02
  0.51963E-04
 -0.75173E-02
  0.52581E-02
  0.15969E-02
  0.45774E-02
  0.96602E-02
  0.89529E-02
 -0.19705E-01
 -0.19818E-01
 -0.19161E-01
 -0.17097E-01
  0.11275E-01
 -0.23539E-02
  0.19592E-03
  0.82996E-04
  0.55176E-02
 -0.16068E-01
 -0.17357E-01
 -0.17151E-01
 -0.16485E-01
 -0.16117E-01
 -0.15477E-01
 -0.59669E-02
 -0.20031E-01
 -0.24392E-03
  0.37239E-02
  0.45320E-02
 -0.13138E-01
  0.52886E-02
  0.45872E-02
 -0.14523E-01
 -0.14006E-01
 -0.14482E-01
 -0.13507E-01
 -0.24468E-02
  0.46534E-02
 -0.12078E-01
  0.55638E-02
  0.57612E-02
  0.60782E-02
  0.59738E-02
  0.78958E-02
  0.14014E-02
  0.29300E-01
  0.58675E-02
  0.57853E-02
  0.82235E-02
 -0.76505E-02
  0.16723E-01
  0.23257E-01
  0.27312E-01
  0.62485E-02
 -0.17427E-01
 -0.17696E-01
 -0.18326E-01
  0.34686E-01
  0.45970E-02
  0.16309E-01
  0.16032E-02
  0.25494E-01
 -0.12621E-01
  0.25533E-01
  0.26635E-01
 -0.23555E-01
 -0.81411E-02
 -0.12466E-01
  0.14391E-01
 -0.18488E-01
 -0.21338E-01
 -0.20667E-01
 -0.18466E-01
 -0.11725E-01
  0.30827E-02
  0.34549E-02
  0.28828E-01
  0.24804E-01
  0.33310E-01
 -0.20980E-01
 -0.21130E-01
 -0.16866E-01
 -0.25156E-01
  0.84766E-02
 -0.26380E-02
  0.26159E-03
 -0.14258E-01
 -0.32182E-01
 -0.36549E-01
 -0.42396E-01
 -0.35133E-01
  0.94249E-02
  0.57967E-02
 -0.90668E-03
  0.10142E-02
  0.44191E-02
  0.17048E-01
  0.18699E-01
  0.20465E-01
  0.14691E-01
 -0.10565E-01
 -0.94213E-02
 -0.20803E-01
 -0.21980E-01
 -0.18917E-01
  0.13810E-01
  0.18969E-01
  0.23609E-01
  0.34029E-01
  0.12835E-01
  0.40832E-02
 -0.24005E-02
 -0.13535E-01
 -0.13494E-01
  0.62813E-02
  0.61797E-02
  0.99992E-02
 -0.11994E-01
  0.53544E-02
 -0.93159E-02
 -0.10761E-01
  0.45382E-02
  0.45468E-02
  0.50020E-02
  0.49431E-02
  0.52004E-02
 -0.18352E-01
 -0.18114E-01
 -0.25337E-01
 -0.30696E-01
 -0.13497E-01
 -0.14713E-01
 -0.25004E-02
  0.55719E-02
 -0.91106E-02
 -0.11470E-01
  0.56629E-02
  0.38356E-01
  0.35579E-01
  0.38944E-01
  0.36246E-01
  0.38632E-01
  0.40297E-01
  0.44747E-02
  0.56067E-02
 -0.45512E-02
 -0.11075E-01
 -0.11488E-01
 -0.12947E-01
 -0.10458E-01
 -0.99748E-02
 -0.12591E-01
 -0.21827E-01
 -0.69530E-02
 -0.52038E-02
 -0.20863E-01
  0.99166E-02
 -0.20086E-01
 -0.28649E-01
 -0.37915E-01
 -0.12500E-01
  0.74733E-02
  0.41461E-01
 -0.40970E-01
 -0.14008E-01
 -0.13013E-01
 -0.13879E-01
 -0.11506E-01
 -0.12183E-01
 -0.16844E-01
 -0.34507E-01
 -0.20469E-02
 -0.77910E-02
 -0.83592E-02
 -0.18119E-01
  0.15833E-01
  0.65513E-02
 -0.91683E-02
 -0.11370E-01
 -0.76969E-02
 -0.83357E-02
 -0.78038E-02
 -0.77633E-02
 -0.19483E-01
 -0.19010E-01
 -0.19067E-01
 -0.43734E-02
 -0.44543E-02
 -0.20318E-01
 -0.13950E-02
  0.28505E-03
 -0.50465E-03
 -0.18157E-01
 -0.18192E-01
 -0.11047E-02
 -0.75940E-02
  0.28675E-01
  0.28256E-01
 -0.29484E-01
  0.24760E-01
  0.24457E-01
  0.26375E-01
 -0.17091E-01
 -0.16504E-01
 -0.14524E-01
  0.78575E-02
 -0.43850E-02
 -0.12416E-01
 -0.14918E-01
  0.51619E-02
  0.53192E-02
  0.50600E-02
  0.54459E-02
 -0.11755E-01
  0.19893E-03
 -0.11857E-01
 -0.12342E-01
  0.32586E-01
 -0.14001E-01
  0.60884E-02
  0.31972E-01
  0.24351E-02
 -0.10829E-01
 -0.24781E-01
 -0.19931E-02
 -0.11192E-01
 -0.21014E-01
 -0.19953E-01
 -0.29229E-01
 -0.22405E-02
 -0.32968E-01
 -0.26876E-01
 -0.34925E-01
 -0.12335E-01
 -0.22870E-01
  0.52216E-02
 -0.47115E-03
 -0.14195E-01
 -0.14040E-01
 -0.20770E-01
 -0.16173E-01
 -0.15786E-01
 -0.17296E-01
  0.50316E-03
 -0.41698E-03
 -0.18432E-01
  0.45534E-03
 -0.10209E-02
 -0.19288E-02
 -0.32059E-04
  0.29964E-02
  0.14214E-02
 -0.20777E-03
  0.43915E-02
  0.43684E-02
  0.61215E-02
  0.48467E-02
  0.29138E-02
  0.42045E-01
  0.41328E-01
  0.21645E-01
  0.24076E-01
  0.30597E-02
  0.24167E-02
  0.10006E-02
  0.14837E-02
 -0.13467E-03
 -0.83079E-03
 -0.22534E-02
 -0.30554E-02
 -0.50353E-02
 -0.43356E-02
 -0.59980E-02
 -0.78477E-02
 -0.64977E-02
  0.26912E-02
 -0.15472E-02
  0.28037E-02
  0.58225E-02
  0.79316E-02
  0.10839E-01
  0.11966E-01
  0.13807E-01
  0.14310E-01
  0.16229E-01
 -0.12929E-01
 -0.13207E-01
  0.24220E-01
 -0.14739E-01
 -0.12426E-01
 -0.64194E-03
  0.48062E-02
 -0.14007E-01
  0.14542E-01
 -0.12658E-01
 -0.97607E-02
  0.25901E-01
  0.26788E-01
  0.27875E-01
  0.60684E-02
 -0.12854E-01
  0.19178E-01
 -0.11811E-01
  0.53072E-02
  0.53763E-02
  0.54114E-02
  0.53323E-02
 -0.21635E-01
 -0.18377E-02
  0.20322E-01
  0.22193E-01
  0.22381E-01
  0.47200E-02
  0.41870E-02
  0.33981E-02
  0.35280E-02
 -0.79752E-05
 -0.37488E-01
  0.91641E-02
  0.68134E-02
 -0.46460E-01
  0.28200E-03
 -0.33238E-02
 -0.41363E-02
 -0.79173E-02
 -0.84310E-02
  0.44600E-02
  0.34267E-02
  0.14304E-01
 -0.18164E-01
 -0.12526E-01
  0.52634E-02
  0.50727E-02
 -0.13837E-01
  0.65545E-02
  0.63857E-02