# vtk DataFile Version 2.0
Unstructured Grid UFVM-ECOMOD
ASCII
DATASET UNSTRUCTURED_GRID
 POINTS         2061  float
  0.00000E+00  0.00000E+00  0.00000E+00
  0.40000E+01  0.00000E+00  0.00000E+00
  0.40000E+01  0.20000E+01  0.00000E+00
  0.00000E+00  0.20000E+01  0.00000E+00
  0.11233E+01  0.11389E+01  0.00000E+00
  0.77667E+00  0.12509E+01  0.00000E+00
  0.11233E+01  0.13630E+01  0.00000E+00
  0.72667E+00  0.84537E+00  0.00000E+00
  0.72525E+00  0.78665E+00  0.00000E+00
  0.72110E+00  0.73162E+00  0.00000E+00
  0.71447E+00  0.68374E+00  0.00000E+00
  0.70578E+00  0.64602E+00  0.00000E+00
  0.69557E+00  0.62082E+00  0.00000E+00
  0.68449E+00  0.60973E+00  0.00000E+00
  0.67323E+00  0.61344E+00  0.00000E+00
  0.66251E+00  0.63173E+00  0.00000E+00
  0.65298E+00  0.66344E+00  0.00000E+00
  0.64526E+00  0.70659E+00  0.00000E+00
  0.63983E+00  0.75845E+00  0.00000E+00
  0.63702E+00  0.81578E+00  0.00000E+00
  0.63702E+00  0.87496E+00  0.00000E+00
  0.63983E+00  0.93229E+00  0.00000E+00
  0.64526E+00  0.98415E+00  0.00000E+00
  0.65298E+00  0.10273E+01  0.00000E+00
  0.66251E+00  0.10590E+01  0.00000E+00
  0.67323E+00  0.10773E+01  0.00000E+00
  0.68449E+00  0.10810E+01  0.00000E+00
  0.69557E+00  0.10699E+01  0.00000E+00
  0.70578E+00  0.10447E+01  0.00000E+00
  0.71447E+00  0.10070E+01  0.00000E+00
  0.72110E+00  0.95912E+00  0.00000E+00
  0.72525E+00  0.90409E+00  0.00000E+00
  0.10000E+00  0.00000E+00  0.00000E+00
  0.20000E+00  0.00000E+00  0.00000E+00
  0.30000E+00  0.00000E+00  0.00000E+00
  0.40000E+00  0.00000E+00  0.00000E+00
  0.50000E+00  0.00000E+00  0.00000E+00
  0.60000E+00  0.00000E+00  0.00000E+00
  0.70000E+00  0.00000E+00  0.00000E+00
  0.80000E+00  0.00000E+00  0.00000E+00
  0.90000E+00  0.00000E+00  0.00000E+00
  0.10000E+01  0.00000E+00  0.00000E+00
  0.11000E+01  0.00000E+00  0.00000E+00
  0.12000E+01  0.00000E+00  0.00000E+00
  0.13000E+01  0.00000E+00  0.00000E+00
  0.14000E+01  0.00000E+00  0.00000E+00
  0.15000E+01  0.00000E+00  0.00000E+00
  0.16000E+01  0.00000E+00  0.00000E+00
  0.17000E+01  0.00000E+00  0.00000E+00
  0.18000E+01  0.00000E+00  0.00000E+00
  0.19000E+01  0.00000E+00  0.00000E+00
  0.20000E+01  0.00000E+00  0.00000E+00
  0.21000E+01  0.00000E+00  0.00000E+00
  0.22000E+01  0.00000E+00  0.00000E+00
  0.23000E+01  0.00000E+00  0.00000E+00
  0.24000E+01  0.00000E+00  0.00000E+00
  0.25000E+01  0.00000E+00  0.00000E+00
  0.26000E+01  0.00000E+00  0.00000E+00
  0.27000E+01  0.00000E+00  0.00000E+00
  0.28000E+01  0.00000E+00  0.00000E+00
  0.29000E+01  0.00000E+00  0.00000E+00
  0.30000E+01  0.00000E+00  0.00000E+00
  0.31000E+01  0.00000E+00  0.00000E+00
  0.32000E+01  0.00000E+00  0.00000E+00
  0.33000E+01  0.00000E+00  0.00000E+00
  0.34000E+01  0.00000E+00  0.00000E+00
  0.35000E+01  0.00000E+00  0.00000E+00
  0.36000E+01  0.00000E+00  0.00000E+00
  0.37000E+01  0.00000E+00  0.00000E+00
  0.38000E+01  0.00000E+00  0.00000E+00
  0.39000E+01  0.00000E+00  0.00000E+00
  0.40000E+01  0.10000E+00  0.00000E+00
  0.40000E+01  0.20000E+00  0.00000E+00
  0.40000E+01  0.30000E+00  0.00000E+00
  0.40000E+01  0.40000E+00  0.00000E+00
  0.40000E+01  0.50000E+00  0.00000E+00
  0.40000E+01  0.60000E+00  0.00000E+00
  0.40000E+01  0.70000E+00  0.00000E+00
  0.40000E+01  0.80000E+00  0.00000E+00
  0.40000E+01  0.90000E+00  0.00000E+00
  0.40000E+01  0.10000E+01  0.00000E+00
  0.40000E+01  0.11000E+01  0.00000E+00
  0.40000E+01  0.12000E+01  0.00000E+00
  0.40000E+01  0.13000E+01  0.00000E+00
  0.40000E+01  0.14000E+01  0.00000E+00
  0.40000E+01  0.15000E+01  0.00000E+00
  0.40000E+01  0.16000E+01  0.00000E+00
  0.40000E+01  0.17000E+01  0.00000E+00
  0.40000E+01  0.18000E+01  0.00000E+00
  0.40000E+01  0.19000E+01  0.00000E+00
  0.39000E+01  0.20000E+01  0.00000E+00
  0.38000E+01  0.20000E+01  0.00000E+00
  0.37000E+01  0.20000E+01  0.00000E+00
  0.36000E+01  0.20000E+01  0.00000E+00
  0.35000E+01  0.20000E+01  0.00000E+00
  0.34000E+01  0.20000E+01  0.00000E+00
  0.33000E+01  0.20000E+01  0.00000E+00
  0.32000E+01  0.20000E+01  0.00000E+00
  0.31000E+01  0.20000E+01  0.00000E+00
  0.30000E+01  0.20000E+01  0.00000E+00
  0.29000E+01  0.20000E+01  0.00000E+00
  0.28000E+01  0.20000E+01  0.00000E+00
  0.27000E+01  0.20000E+01  0.00000E+00
  0.26000E+01  0.20000E+01  0.00000E+00
  0.25000E+01  0.20000E+01  0.00000E+00
  0.24000E+01  0.20000E+01  0.00000E+00
  0.23000E+01  0.20000E+01  0.00000E+00
  0.22000E+01  0.20000E+01  0.00000E+00
  0.21000E+01  0.20000E+01  0.00000E+00
  0.20000E+01  0.20000E+01  0.00000E+00
  0.19000E+01  0.20000E+01  0.00000E+00
  0.18000E+01  0.20000E+01  0.00000E+00
  0.17000E+01  0.20000E+01  0.00000E+00
  0.16000E+01  0.20000E+01  0.00000E+00
  0.15000E+01  0.20000E+01  0.00000E+00
  0.14000E+01  0.20000E+01  0.00000E+00
  0.13000E+01  0.20000E+01  0.00000E+00
  0.12000E+01  0.20000E+01  0.00000E+00
  0.11000E+01  0.20000E+01  0.00000E+00
  0.10000E+01  0.20000E+01  0.00000E+00
  0.90000E+00  0.20000E+01  0.00000E+00
  0.80000E+00  0.20000E+01  0.00000E+00
  0.70000E+00  0.20000E+01  0.00000E+00
  0.60000E+00  0.20000E+01  0.00000E+00
  0.50000E+00  0.20000E+01  0.00000E+00
  0.40000E+00  0.20000E+01  0.00000E+00
  0.30000E+00  0.20000E+01  0.00000E+00
  0.20000E+00  0.20000E+01  0.00000E+00
  0.10000E+00  0.20000E+01  0.00000E+00
  0.00000E+00  0.19000E+01  0.00000E+00
  0.00000E+00  0.18000E+01  0.00000E+00
  0.00000E+00  0.17000E+01  0.00000E+00
  0.00000E+00  0.16000E+01  0.00000E+00
  0.00000E+00  0.15000E+01  0.00000E+00
  0.00000E+00  0.14000E+01  0.00000E+00
  0.00000E+00  0.13000E+01  0.00000E+00
  0.00000E+00  0.12000E+01  0.00000E+00
  0.00000E+00  0.11000E+01  0.00000E+00
  0.00000E+00  0.10000E+01  0.00000E+00
  0.00000E+00  0.90000E+00  0.00000E+00
  0.00000E+00  0.80000E+00  0.00000E+00
  0.00000E+00  0.70000E+00  0.00000E+00
  0.00000E+00  0.60000E+00  0.00000E+00
  0.00000E+00  0.50000E+00  0.00000E+00
  0.00000E+00  0.40000E+00  0.00000E+00
  0.00000E+00  0.30000E+00  0.00000E+00
  0.00000E+00  0.20000E+00  0.00000E+00
  0.00000E+00  0.10000E+00  0.00000E+00
  0.11002E+01  0.11464E+01  0.00000E+00
  0.10771E+01  0.11538E+01  0.00000E+00
  0.10540E+01  0.11613E+01  0.00000E+00
  0.10309E+01  0.11688E+01  0.00000E+00
  0.10078E+01  0.11762E+01  0.00000E+00
  0.98467E+00  0.11837E+01  0.00000E+00
  0.96156E+00  0.11912E+01  0.00000E+00
  0.93844E+00  0.11986E+01  0.00000E+00
  0.91533E+00  0.12061E+01  0.00000E+00
  0.89222E+00  0.12136E+01  0.00000E+00
  0.86911E+00  0.12210E+01  0.00000E+00
  0.84600E+00  0.12285E+01  0.00000E+00
  0.82289E+00  0.12360E+01  0.00000E+00
  0.79978E+00  0.12435E+01  0.00000E+00
  0.79978E+00  0.12584E+01  0.00000E+00
  0.82289E+00  0.12659E+01  0.00000E+00
  0.84600E+00  0.12733E+01  0.00000E+00
  0.86911E+00  0.12808E+01  0.00000E+00
  0.89222E+00  0.12883E+01  0.00000E+00
  0.91533E+00  0.12957E+01  0.00000E+00
  0.93844E+00  0.13032E+01  0.00000E+00
  0.96156E+00  0.13107E+01  0.00000E+00
  0.98467E+00  0.13181E+01  0.00000E+00
  0.10078E+01  0.13256E+01  0.00000E+00
  0.10309E+01  0.13331E+01  0.00000E+00
  0.10540E+01  0.13406E+01  0.00000E+00
  0.10771E+01  0.13480E+01  0.00000E+00
  0.11002E+01  0.13555E+01  0.00000E+00
  0.11233E+01  0.13381E+01  0.00000E+00
  0.11233E+01  0.13132E+01  0.00000E+00
  0.11233E+01  0.12883E+01  0.00000E+00
  0.11233E+01  0.12634E+01  0.00000E+00
  0.11233E+01  0.12385E+01  0.00000E+00
  0.11233E+01  0.12136E+01  0.00000E+00
  0.11233E+01  0.11887E+01  0.00000E+00
  0.11233E+01  0.11638E+01  0.00000E+00
  0.72596E+00  0.81601E+00  0.00000E+00
  0.72318E+00  0.75914E+00  0.00000E+00
  0.64254E+00  0.73252E+00  0.00000E+00
  0.63842E+00  0.78711E+00  0.00000E+00
  0.63702E+00  0.84537E+00  0.00000E+00
  0.63842E+00  0.90363E+00  0.00000E+00
  0.64254E+00  0.95822E+00  0.00000E+00
  0.72318E+00  0.93160E+00  0.00000E+00
  0.72596E+00  0.87473E+00  0.00000E+00
  0.74623E+00  0.70374E+00  0.00000E+00
  0.11476E+01  0.11795E+01  0.00000E+00
  0.11428E+01  0.13264E+01  0.00000E+00
  0.20501E+01  0.84770E-01  0.00000E+00
  0.20513E+01  0.19161E+01  0.00000E+00
  0.75086E+00  0.83082E+00  0.00000E+00
  0.10802E+01  0.11281E+01  0.00000E+00
  0.29510E+01  0.19171E+01  0.00000E+00
  0.25540E+01  0.78210E-01  0.00000E+00
  0.24497E+01  0.19139E+01  0.00000E+00
  0.29535E+01  0.84730E-01  0.00000E+00
  0.16545E+01  0.96330E-01  0.00000E+00
  0.39091E+01  0.10592E+01  0.00000E+00
  0.98745E+00  0.11609E+01  0.00000E+00
  0.71788E+00  0.62645E+00  0.00000E+00
  0.74597E+00  0.94716E+00  0.00000E+00
  0.80605E+00  0.12789E+01  0.00000E+00
  0.92000E+00  0.13196E+01  0.00000E+00
  0.10129E+01  0.13491E+01  0.00000E+00
  0.16502E+01  0.19155E+01  0.00000E+00
  0.12478E+01  0.82260E-01  0.00000E+00
  0.63816E+00  0.63969E+00  0.00000E+00
  0.61877E+00  0.74255E+00  0.00000E+00
  0.61437E+00  0.82908E+00  0.00000E+00
  0.63522E+00  0.10499E+01  0.00000E+00
  0.61620E+00  0.95001E+00  0.00000E+00
  0.33500E+01  0.81140E-01  0.00000E+00
  0.33444E+01  0.19176E+01  0.00000E+00
  0.89845E+00  0.11909E+01  0.00000E+00
  0.93200E-01  0.15508E+01  0.00000E+00
  0.69847E+00  0.10839E+01  0.00000E+00
  0.68876E+00  0.10934E+01  0.00000E+00
  0.39109E+01  0.63916E+00  0.00000E+00
  0.70286E+00  0.10972E+01  0.00000E+00
  0.69242E+00  0.11076E+01  0.00000E+00
  0.39066E+01  0.13469E+01  0.00000E+00
  0.54882E+00  0.19235E+01  0.00000E+00
  0.11450E+01  0.12519E+01  0.00000E+00
  0.10822E+01  0.13717E+01  0.00000E+00
  0.82801E+00  0.12139E+01  0.00000E+00
  0.13560E+01  0.19166E+01  0.00000E+00
  0.94081E+00  0.73780E-01  0.00000E+00
  0.70738E+00  0.11117E+01  0.00000E+00
  0.69616E+00  0.11233E+01  0.00000E+00
  0.67954E+00  0.11181E+01  0.00000E+00
  0.68347E+00  0.11365E+01  0.00000E+00
  0.66340E+00  0.11298E+01  0.00000E+00
  0.66907E+00  0.11513E+01  0.00000E+00
  0.64512E+00  0.11441E+01  0.00000E+00
  0.74001E+00  0.10310E+01  0.00000E+00
  0.44749E+00  0.82430E-01  0.00000E+00
  0.67511E+00  0.60138E+00  0.00000E+00
  0.67440E-01  0.43983E+00  0.00000E+00
  0.85004E+00  0.19236E+01  0.00000E+00
[...]
 POINT_DATA         2061
  
 SCALARS WL      float 1
 LOOKUP_TABLE default
  0.38623E-01
 -0.50931E-03
 -0.21817E+00
  0.34209E-01
 -0.43759E-01
  0.34667E-01
 -0.49262E-01
 -0.56882E-01
 -0.53142E-01
 -0.49534E-01
 -0.48725E-01
 -0.49664E-01
 -0.51087E-01
 -0.45814E-01
 -0.19837E-01
  0.15889E-01
  0.40624E-01
  0.50717E-01
  0.56760E-01
  0.59507E-01
  0.59494E-01
  0.57607E-01
  0.52459E-01
  0.43454E-01
  0.20691E-01
 -0.24236E-01
 -0.48214E-01
 -0.50986E-01
 -0.51123E-01
 -0.51909E-01
 -0.53948E-01
 -0.56740E-01
  0.38375E-01
  0.37549E-01
  0.35932E-01
  0.33382E-01
  0.29708E-01
  0.24359E-01
  0.17115E-01
  0.91957E-02
  0.24589E-03
 -0.89144E-02
 -0.17901E-01
 -0.25631E-01
 -0.31354E-01
 -0.32999E-01
 -0.28228E-01
 -0.18122E-01
 -0.97635E-02
 -0.69922E-02
 -0.70241E-02
 -0.71366E-02
 -0.62152E-02
 -0.42797E-02
 -0.14552E-02
  0.17711E-02
  0.61531E-02
  0.10350E-01
  0.13535E-01
  0.94004E-02
 -0.16223E-01
 -0.76081E-01
 -0.13958E+00
 -0.21384E+00
 -0.12360E+00
 -0.89470E-01
 -0.35691E-01
 -0.13425E-01
 -0.38529E-02
 -0.64639E-03
 -0.37671E-04
  0.00000E+00
  0.00000E+00
  0.00000E+00
  0.00000E+00
  0.00000E+00
  0.00000E+00
  0.00000E+00
  0.00000E+00
  0.00000E+00
  0.00000E+00
  0.00000E+00
  0.00000E+00
  0.00000E+00
  0.00000E+00
  0.00000E+00
  0.00000E+00
  0.00000E+00
  0.00000E+00
  0.00000E+00
 -0.26305E+00
 -0.44898E+00
 -0.52039E+00
 -0.47126E+00
 -0.35743E+00
 -0.35877E+00
 -0.38456E+00
 -0.36088E+00
 -0.10961E+01
 -0.11157E+01
 -0.10057E+01
 -0.87297E+00
 -0.84827E+00
 -0.21875E+01
 -0.18813E+01
 -0.33985E+00
 -0.93625E+00
 -0.90938E+00
 -0.27094E+00
 -0.26045E+00
 -0.24389E+00
 -0.26207E+00
 -0.26625E+00
 -0.26926E+00
 -0.26659E+00
 -0.25285E+00
 -0.16884E+00
 -0.93991E-02
  0.29899E-04
  0.65637E-02
  0.12076E-01
  0.16677E-01
  0.20655E-01
  0.23805E-01
  0.26551E-01
  0.28831E-01
  0.30719E-01
  0.32295E-01
  0.33507E-01
  0.34454E-01
  0.34949E-01
  0.35711E-01
  0.36719E-01
  0.38046E-01
  0.39516E-01
  0.41012E-01
  0.42859E-01
  0.44275E-01
  0.45480E-01
  0.46122E-01
  0.46142E-01
  0.45565E-01
  0.44521E-01
  0.43118E-01
  0.41751E-01
  0.40526E-01
  0.39512E-01
  0.38916E-01
 -0.51134E-01
 -0.59174E-01
 -0.64841E-01
 -0.64736E-01
 -0.62112E-01
 -0.56550E-01
 -0.51535E-01
 -0.41832E-01
 -0.32159E-01
 -0.19232E-01
 -0.75147E-02
  0.27255E-02
  0.16761E-01
  0.30179E-01
  0.30784E-01
  0.25791E-01
  0.21931E-01
  0.19909E-01
  0.17223E-01
  0.14827E-01
  0.12408E-01
  0.92065E-02
  0.65804E-02
  0.34005E-02
 -0.92058E-04
 -0.48253E-02
 -0.11844E-01
 -0.20784E-01
 -0.66545E-01
 -0.66339E-01
 -0.65264E-01
 -0.62185E-01
 -0.57570E-01
 -0.52885E-01
 -0.48334E-01
 -0.44687E-01
 -0.55270E-01
 -0.50999E-01
  0.54454E-01
  0.58516E-01
  0.59782E-01
  0.58808E-01
  0.55786E-01
 -0.55352E-01
 -0.57423E-01
 -0.48878E-01
 -0.46801E-01
 -0.66476E-01
 -0.66886E-02
 -0.33632E+00
 -0.56291E-01
 -0.57819E-01
 -0.42641E+00
  0.85079E-02
 -0.11243E+01
 -0.10956E+00
 -0.13430E-01
 -0.84289E+00
 -0.59400E-01
 -0.50030E-01
 -0.54636E-01
  0.27347E-01
  0.14013E-01
  0.20305E-02
 -0.31122E+00
 -0.29285E-01
  0.31767E-01
  0.55592E-01
  0.59578E-01
  0.37729E-01
  0.56590E-01
 -0.20087E+00
 -0.34261E+00
 -0.26775E-01
  0.36797E-01
 -0.50633E-01
 -0.43281E-01
 -0.17300E+00
 -0.47005E-01
 -0.31965E-01
 -0.33521E+01
  0.25350E-01
 -0.61007E-01
 -0.15265E-01
  0.77234E-02
 -0.23807E+00
 -0.40081E-02
 -0.37444E-01
 -0.20804E-01
 -0.11060E-01
 -0.43023E-02
  0.64695E-02
  0.87151E-02
  0.18073E-01
 -0.51262E-01
  0.31763E-01
 -0.28161E-01
  0.42186E-01
  0.14623E-01
  0.41900E-01
 -0.25976E-01
  0.46046E-01
 -0.18438E-01
 -0.51952E+00
 -0.40382E-01
 -0.28033E-01
 -0.41337E-01
 -0.52414E-01
 -0.27337E-01
 -0.39180E-01
 -0.14670E-01
  0.59113E-01
 -0.57324E-01
 -0.40348E+00
 -0.29236E-01
  0.12383E-01
 -0.41864E-02
  0.45983E-01
 -0.36638E+00
  0.29958E-01
 -0.31724E-01
 -0.68605E-02
 -0.24061E-02
 -0.14999E+01
 -0.11870E+01
 -0.36905E-01
 -0.27622E+00
 -0.49935E+00
 -0.60699E+00
 -0.47745E-01
 -0.65740E-01
  0.20945E-01
  0.79732E-02
  0.39883E-01
 -0.12524E-01
 -0.23121E-02
 -0.50798E-01
  0.65134E-03
 -0.91447E-02
  0.34870E-01
  0.90746E-02
  0.62526E-02
  0.18246E-01
  0.25010E-01
  0.24302E-01
  0.29475E-01
  0.28331E-01
  0.32669E-01
  0.31012E-01
  0.34403E-01
  0.32781E-01
  0.36683E-01
  0.29921E-01
  0.31524E-01
  0.29177E-01
  0.30446E-01
  0.28427E-01
  0.29542E-01
  0.27536E-01
  0.32880E-01
  0.37317E-01
  0.40001E-01
  0.28514E-01
  0.26356E-01
  0.27250E-01
  0.29414E-01
  0.25161E-01
  0.39776E-01
  0.42453E-01
  0.24153E-01
  0.22899E-01
  0.21776E-01
  0.20333E-01
  0.18964E-01
  0.17451E-01
  0.15654E-01
  0.14125E-01
  0.11340E-01
  0.10232E-01
  0.69535E-02
  0.59055E-02
  0.17946E-02
  0.21690E-01
  0.27999E-01
  0.30142E-01
  0.96070E-03
 -0.47440E-02
  0.41671E-01
  0.43997E-01
  0.45415E-01
  0.46267E-01
  0.48193E-01
  0.48305E-01
  0.50438E-01
  0.49791E-01
  0.52283E-01
  0.50716E-01
  0.52650E-01
 -0.44969E-02
 -0.11242E-01
 -0.10111E-01
 -0.17608E-01
 -0.20110E-01
 -0.26990E-01
 -0.23553E-01
 -0.32773E-01
 -0.38201E-01
 -0.42675E-01
 -0.50630E-01
 -0.51192E-01
 -0.61484E-01
 -0.53946E-01
 -0.64701E-01
 -0.44288E-01
 -0.55195E-01
 -0.26269E-01
 -0.40538E-01
 -0.14494E-01
 -0.29354E-01
 -0.10409E-01
 -0.23847E-01
 -0.12730E-01
 -0.27236E-01
 -0.21801E-01
 -0.34620E-01
 -0.33197E-01
 -0.35805E-01
 -0.31137E-01
 -0.32894E-01
 -0.29964E-01
 -0.39758E-01
 -0.29652E-01
 -0.29487E-01
 -0.29735E-01
 -0.36300E-01
 -0.39757E-01
 -0.71008E-01
 -0.11081E-01
 -0.10458E+00
 -0.20273E+00
 -0.29220E-01
 -0.24538E+00
 -0.32214E+00
 -0.20269E+00
 -0.14470E+01
 -0.40753E+00
 -0.40758E+00
 -0.44933E+00
 -0.38688E+00
 -0.37401E+00
 -0.36699E+00
 -0.28106E+00
 -0.35522E+00
 -0.34228E+00
 -0.68678E+00
 -0.34316E+00
 -0.14582E+01
 -0.65116E+00
 -0.37627E+00
 -0.11945E+01
 -0.43781E+00
 -0.54002E+00
 -0.46351E+00
 -0.39340E+00
 -0.35528E+00
 -0.57527E+00
 -0.47909E+00
 -0.30030E+00
 -0.45154E+00
 -0.84059E+00
 -0.51079E-02
 -0.43001E-01
 -0.78022E+00
 -0.35070E+00
 -0.11198E+01
 -0.84925E+00
 -0.82097E+00
 -0.95732E+00
 -0.23736E+00
 -0.44126E-01
 -0.37518E+00
 -0.97211E+00
 -0.52286E+00
 -0.46123E+00
 -0.47245E+00
 -0.83708E+00
 -0.26796E+00
 -0.28664E+00
 -0.45986E+00
 -0.47169E+00
 -0.35399E+00
 -0.47426E+00
 -0.49873E+00
 -0.72094E-01
 -0.28907E+00
 -0.88617E+00
 -0.14140E+01
 -0.76196E+00
 -0.59383E+00
 -0.38343E+00
 -0.10527E+01
 -0.27658E+00
 -0.28689E-01
 -0.41471E+00
 -0.79303E+00
 -0.67271E+00
 -0.33207E+00
 -0.32476E+00
 -0.76992E+00
 -0.38357E+00
 -0.13251E+01
  0.24190E-01
  0.50870E-01
  0.52346E-01
  0.50400E-01
  0.51323E-01
  0.49315E-01
  0.49459E-01
  0.47739E-01
  0.47334E-01
  0.48970E-01
  0.46233E-01
  0.45191E-01
  0.43498E-01
  0.43040E-01
  0.40655E-01
  0.41075E-01
  0.38599E-01
  0.37121E-01
  0.35231E-01
  0.32773E-01
  0.31338E-01
  0.27615E-01
  0.29140E-01
  0.22112E-01
  0.22338E-01
  0.15609E-01
  0.36847E-01
  0.14410E-01
  0.68167E-02
  0.94942E-02
  0.36662E-03
 -0.45513E-02
 -0.10929E-01
 -0.41854E-01
 -0.22837E-01
 -0.33432E-01
 -0.40260E-02
 -0.14622E-01
 -0.23273E-01
 -0.24547E-01
 -0.34610E-01
 -0.31578E-01
 -0.41861E-01
 -0.36208E-01
 -0.40796E-01
 -0.36472E-01
 -0.40107E-01
 -0.35887E-01
 -0.41023E-01
 -0.36986E-01
 -0.44251E-01
 -0.40827E-01
 -0.50203E-01
 -0.46559E-01
 -0.57332E-01
 -0.56178E-01
 -0.64133E-01
 -0.57412E-01
 -0.63130E-01
 -0.68104E-01
 -0.52188E-01
 -0.34546E-01
 -0.58214E-01
 -0.43701E-01
 -0.49746E-01
 -0.37760E-01
 -0.43137E-01
 -0.36461E-01
 -0.33541E-01
 -0.41637E-01
 -0.32969E-01
 -0.41098E-01
 -0.44790E-01
 -0.42626E-01
 -0.44829E-01
 -0.45009E-01
 -0.36817E-01
 -0.36768E-01
 -0.51022E-01
 -0.25760E-01
 -0.24292E-01
 -0.17375E-01
 -0.36845E-01
 -0.67292E-01
 -0.68386E-01
 -0.67532E-01
 -0.65901E-01
 -0.65316E-01
 -0.60531E-01
 -0.62361E-01
 -0.53815E-01
 -0.60008E-01
 -0.53071E-01
 -0.60345E-01
 -0.64979E-01
 -0.61824E-01
 -0.65415E-01
 -0.64009E-01
 -0.65552E-01
 -0.65482E-01
 -0.65414E-01
 -0.65430E-01
 -0.64702E-01
 -0.65039E-01
 -0.64155E-01
 -0.63325E-01
 -0.64547E-01
 -0.62742E-01
 -0.61416E-01
 -0.60891E-01
 -0.59209E-01
 -0.60117E-01
 -0.57602E-01
 -0.54839E-01
 -0.56822E-01
 -0.55077E-01
 -0.60019E-01
 -0.58943E-01
 -0.62633E-02
 -0.15792E-01
 -0.14536E-01
 -0.85538E-01
 -0.49022E-01
 -0.86406E-02
 -0.11433E-01
 -0.54770E-01
 -0.46672E-01
 -0.50684E-01
 -0.49099E-02
  0.98006E-02
 -0.62255E-01
 -0.60528E-01
 -0.61777E-01
 -0.57195E-02
 -0.69803E-02
  0.28685E-01
  0.30722E-01
  0.32174E-01
  0.14018E-03
 -0.42426E-01
  0.44717E-01
 -0.96920E+00
 -0.51474E+00
 -0.13249E+01
 -0.27697E-01
 -0.30845E-01
 -0.25357E+00
 -0.89869E+00
 -0.42716E+00
 -0.13889E+00
  0.26492E-01
 -0.62803E+00
 -0.41505E+00
 -0.61753E+00
 -0.72346E-01
 -0.38785E+00
 -0.46327E+00
 -0.38591E+00
 -0.38492E+00
 -0.46967E+00
 -0.42374E+00
 -0.46526E-01
 -0.65943E-01
 -0.37244E-01
 -0.10175E+00
 -0.69012E-01
 -0.51937E-02
 -0.75427E-01
 -0.31938E-02
 -0.15105E-01
 -0.82036E+00
 -0.13653E+00
 -0.11870E-01
 -0.12705E+00
  0.17613E-01
  0.12933E-01
 -0.59241E-01
  0.44448E-01
 -0.44715E-01
  0.39324E-01
 -0.97258E+00
 -0.13324E+01
 -0.58225E+00
 -0.20708E-01
 -0.33683E+00
 -0.17436E+00
 -0.45873E-01
 -0.91561E-01
 -0.47661E-01
 -0.17269E+00
 -0.13551E+00
 -0.51356E+00
 -0.89264E+00
 -0.48806E+00
  0.41009E-01
  0.38905E-01
 -0.43617E-01
 -0.49683E-01
  0.29179E-02
 -0.63406E-01
 -0.66049E-01
  0.44468E-01
 -0.62835E-01
 -0.63649E-01
 -0.35483E+00
 -0.56283E+00
 -0.25526E-01
  0.53741E-01
  0.32583E-01
 -0.34301E-01
 -0.17312E-01
 -0.61112E+00
  0.39629E-01
  0.14987E-01
 -0.64926E-01
 -0.64152E-01
 -0.66052E+00
  0.47954E-01
  0.49457E-01
 -0.38563E+00
  0.50506E-01
  0.26599E-01
 -0.67570E+00
 -0.38264E+00
 -0.60195E-01
 -0.61186E-01
  0.29406E-01
  0.27281E-01
 -0.54436E-01
 -0.52662E-01
 -0.53524E-01
 -0.51294E-01
 -0.50520E-01
 -0.46762E-01
  0.92297E-02
  0.21161E-01
 -0.53860E-02
 -0.10807E-01
 -0.83446E+00
 -0.32603E+00
 -0.11908E+01
 -0.62967E+00
 -0.22080E+00
  0.54465E-01
  0.34078E-01
 -0.45129E-01
 -0.54955E-01
 -0.38226E-01
 -0.10433E+00
 -0.40131E-01
 -0.29946E-02
 -0.59836E-01
 -0.60192E-01
 -0.53822E+00
 -0.30231E+00
 -0.14854E+01
 -0.14467E+01
 -0.16533E+01
 -0.50020E+00
 -0.48920E+00
 -0.51021E+00
 -0.54647E+00
 -0.68794E+00
 -0.56675E+00
 -0.71852E+00
 -0.56338E+00
 -0.67198E+00
 -0.74098E+00
 -0.59911E+00
 -0.65859E+00
 -0.59634E+00
 -0.54905E+00
 -0.60331E+00
 -0.53558E+00
 -0.71518E-02
 -0.52288E-01
 -0.65367E-01
 -0.36906E+00
 -0.20717E+00
 -0.50382E-01
 -0.34601E+00
 -0.16582E+01
 -0.68068E+00
 -0.62785E+00
 -0.18200E+01
 -0.54910E+00
 -0.67348E-01
 -0.31742E+00
 -0.27794E+00
 -0.45959E+00
 -0.27701E-01
  0.40357E-01
 -0.63135E-01
 -0.75927E-01
 -0.16859E-02
 -0.39511E+00
 -0.49184E+00
 -0.61596E-01
 -0.60843E-01
 -0.62239E+00
 -0.65977E+00
 -0.93615E+00
 -0.62372E-01
 -0.61346E-01
 -0.62105E-01
 -0.60500E-01
 -0.60781E-01
 -0.58466E-01
 -0.58167E-01
 -0.55602E-01
 -0.42961E-01
 -0.48771E-01
 -0.36351E-01
 -0.18616E-01
 -0.29043E+00
  0.48729E-01
 -0.63798E-01
 -0.67432E-01
 -0.63839E-01
  0.18637E-01
  0.27574E-01
  0.31601E-01
 -0.72664E-01
 -0.82358E-01
 -0.30093E+00
 -0.68152E+00
 -0.77464E+00
 -0.49284E-01
 -0.28996E+00
  0.34292E-01
  0.32912E-01
  0.35817E-01
 -0.38303E+00
 -0.73970E+00
 -0.82557E+00
 -0.55315E+00
 -0.13440E+01
 -0.88944E+00
 -0.68150E+00
 -0.77022E-01
 -0.38037E-01
 -0.12593E-01
 -0.60268E-01
 -0.63397E+00
 -0.40613E+00
 -0.48574E-01
 -0.36240E-01
 -0.60479E+00
 -0.67169E-01
  0.28173E-01
 -0.32495E-01
 -0.58167E-01
 -0.32738E-01
  0.36955E-01
 -0.44670E+00
 -0.82830E-01
 -0.41486E+00
 -0.52324E-01
 -0.54362E-01
 -0.69213E+00
 -0.45017E-01
 -0.31355E+00
 -0.40600E+00
 -0.43298E+00
 -0.25830E+00
 -0.26356E+00
 -0.62614E-01
 -0.48661E+00
 -0.20382E+00
  0.26043E-01
  0.23103E-01
  0.25472E-01
  0.37362E-01
  0.44681E-01
  0.43364E-01
  0.48261E-01
  0.46390E-01
 -0.32557E-02
 -0.48626E-01
 -0.84553E-02
 -0.54753E-01
 -0.53036E-01
 -0.75939E-01
  0.13218E-01
  0.18851E-01
 -0.60560E-01
  0.35133E-01
  0.40069E-01
 -0.44738E+00
 -0.45694E+00
 -0.28234E+00
 -0.46736E+00
 -0.84785E-01
 -0.66097E-01
  0.12311E-01
 -0.57354E-01
 -0.56017E-01
 -0.48313E-01
 -0.63717E-01
 -0.63146E-01
 -0.58907E-01
 -0.10339E+01
 -0.53028E-01
 -0.51722E-01
 -0.59016E+00
 -0.61224E-01
 -0.55337E-01
 -0.65684E-01
 -0.64920E+00
 -0.40338E-01
 -0.15491E+01
 -0.17021E+01
 -0.29462E+00
 -0.54393E+00
 -0.14925E+01
 -0.57184E+00
 -0.56996E-01
  0.33691E-01
 -0.53324E+00
 -0.60412E-01
 -0.83283E-01
 -0.23560E+00
  0.26906E-01
  0.24916E-01
  0.23654E-01
 -0.21036E-02
 -0.62244E+00
 -0.61637E-01
 -0.10437E+01
 -0.30593E+00
 -0.28043E+00
 -0.26701E+00
 -0.84731E+00
 -0.66302E+00
 -0.46950E-01
 -0.39382E-01
 -0.48572E-01
 -0.43069E-01
 -0.49625E-01
 -0.28864E-01
 -0.33699E-01
 -0.29518E+00
  0.44507E-01
  0.34456E-01
  0.33220E-01
 -0.31716E+00
 -0.42763E+00
 -0.64890E+00
 -0.46695E+00
 -0.31234E+00
 -0.67390E+00
 -0.43943E-02
 -0.11717E+01
 -0.10045E+01
 -0.12958E+01
 -0.32258E+00
 -0.29152E+00
 -0.37722E+00
 -0.35406E+00
 -0.74096E+00
 -0.54718E-01
 -0.18005E-01
 -0.79834E-01
 -0.73503E-01
 -0.43480E+00
 -0.95562E+00
 -0.18631E+01
 -0.85425E+00
 -0.20841E-01
 -0.16568E-01
 -0.26128E-01
  0.11930E-02
 -0.52470E-01
 -0.54592E-01
 -0.50858E-01
 -0.52859E-01
 -0.22777E-01
 -0.31217E-01
 -0.33936E-01
 -0.35280E-01
 -0.36474E-01
 -0.35340E-01
 -0.35407E-01
 -0.33506E-01
 -0.33340E-01
 -0.31384E-01
 -0.30974E-01
 -0.28893E-01
 -0.27024E-01
 -0.24189E-01
 -0.29959E-01
 -0.21585E-01
 -0.17877E-01
 -0.21625E-01
 -0.14256E-01
 -0.34750E-01
 -0.70558E-01
 -0.77252E-02
 -0.68843E-02
 -0.37234E+00
 -0.40180E+00
 -0.50904E+00
 -0.16549E-02
  0.10709E-03
  0.50816E-03
  0.24517E-02
 -0.51481E-01
 -0.51801E-01
 -0.50908E-01
 -0.51479E-01
 -0.28586E+00
 -0.63823E-01
 -0.45119E-01
 -0.41041E-01
  0.22189E-01
  0.20964E-01
  0.19126E-01
 -0.55669E+00
 -0.86263E-01
 -0.63493E-01
 -0.29692E-01
 -0.33230E+00
 -0.33367E+00
 -0.29263E+00
 -0.56065E-01
  0.50265E-01
  0.52125E-01
 -0.50620E-01
  0.38459E-01
  0.39668E-01
  0.41490E-01
 -0.45514E+00
 -0.52410E+00
 -0.55544E+00
 -0.63977E+00
 -0.30242E-01
 -0.30857E+00
 -0.24807E-01
  0.40183E-01
  0.47111E-01
 -0.75079E-01
 -0.67614E-01
 -0.36324E+00
  0.31098E-01
  0.36768E-01
  0.30080E-01
  0.28797E-01
  0.33067E-01
 -0.59889E+00
  0.37144E-01
 -0.40983E-01
  0.34580E-01
 -0.38004E+00
 -0.62765E+00
 -0.36953E+00
 -0.75270E-01
 -0.10344E-01
 -0.56737E-02
 -0.56849E+00
 -0.28201E+00
 -0.38271E+00
  0.28453E-02
 -0.13595E-01
 -0.11963E-01
 -0.64860E-02
 -0.18642E-01
 -0.56544E-01
 -0.56574E-01
 -0.22113E+00
 -0.12695E+00
  0.22733E-01
 -0.75025E+00
 -0.45531E+00
 -0.12989E+01
  0.17868E-01
  0.15295E-01
  0.87692E-02
 -0.50170E+00
 -0.96392E+00
 -0.66768E-01
 -0.56043E-01
 -0.55311E-01
 -0.41533E-01
 -0.40000E-01
 -0.27456E-01
 -0.31014E-01
 -0.19426E-01
 -0.15180E-01
 -0.90849E-02
 -0.64532E-02
 -0.39512E-01
 -0.36715E-01
 -0.85506E+00
 -0.43912E-01
  0.22559E-01
  0.23429E-01
  0.21814E-01
  0.24382E-01
  0.25941E-01
  0.25553E-01
  0.25902E-01
  0.25533E-01
  0.24991E-01
  0.25623E-01
  0.23719E-01
  0.23507E-01
  0.21484E-01
  0.21992E-01
  0.19641E-01
  0.18578E-01
  0.16814E-01
  0.15319E-01
  0.13674E-01
  0.11880E-01
  0.99809E-02
  0.11909E-01
  0.79174E-02
  0.56592E-02
  0.17131E-01
  0.39156E-02
  0.11298E-02
 -0.10683E+00
 -0.63414E-01
 -0.67409E-01
 -0.50056E-02
 -0.46384E-01
 -0.35473E-01
 -0.70722E+00
 -0.81920E+00
 -0.11701E-01
 -0.26117E+00
 -0.14095E-01
 -0.49373E-01
  0.30600E-01
 -0.11496E+00
 -0.52662E-01
 -0.55133E-01
  0.33493E-01
  0.37660E-01
  0.24914E-01
 -0.32934E+00
 -0.10980E+00
 -0.30569E+00
 -0.90008E+00
 -0.73893E+00
 -0.94122E-01
 -0.63891E-01
 -0.82447E+00
 -0.43577E+00
 -0.31056E+00
 -0.46098E+00
  0.33028E-02
  0.53872E-02
 -0.36382E+00
 -0.63391E-02
 -0.64593E-02
 -0.44097E+00
 -0.49855E-01
 -0.50622E-01
 -0.23299E-02
  0.27030E-02
 -0.11262E-02
  0.76227E-02
  0.20248E-01
 -0.30449E+00
 -0.35844E+00
 -0.35522E+00
 -0.54582E+00
 -0.15545E+00
 -0.76325E-02
 -0.67016E-01
 -0.39910E-01
 -0.43495E-01
  0.27099E-01
 -0.62100E+00
 -0.76455E+00
 -0.62276E-01
 -0.61913E+00
 -0.36214E-01
 -0.53390E-01
 -0.64497E-01
  0.33211E-01
  0.40749E-01
  0.39044E-01
  0.42389E-01
  0.43380E-01
  0.43896E-01
  0.45017E-01
  0.45107E-01
  0.46351E-01
 -0.12041E-01
 -0.69954E-01
 -0.19257E-01
 -0.24844E-01
  0.17412E-01
  0.14222E-01
  0.11419E-01
  0.10221E-01
  0.69143E-02
  0.53257E-02
  0.80685E-02
  0.50241E-01
  0.51573E-01
  0.48757E-01
  0.52217E-01
  0.49589E-01
  0.52066E-01
  0.54519E-01
 -0.56671E+00
 -0.62363E+00
 -0.48894E+00
 -0.71505E+00
  0.27010E-01
  0.75005E-02
  0.54620E-01
  0.54896E-01
  0.52509E-01
  0.54432E-01
  0.56610E-01
 -0.26614E-01
 -0.31461E-01
 -0.31563E-01
 -0.38979E-01
 -0.30533E+00
 -0.13190E+01
 -0.44619E-01
  0.30374E-02
 -0.23599E-02
  0.47468E-03
 -0.74128E+00
 -0.77440E+00
 -0.45990E-01
 -0.70944E+00
  0.52546E-01
 -0.37356E-02
  0.41435E-02
  0.13218E-01
  0.14982E-01
  0.19864E-01
  0.20592E-01
  0.25441E-01
  0.25509E-01
  0.25018E-01
  0.29716E-01
 -0.56867E-01
 -0.65772E-01
 -0.59047E-01
 -0.65134E-01
 -0.26401E+00
 -0.39260E+00
 -0.42675E+00
 -0.48288E-01
 -0.41222E-01
 -0.30824E-01
 -0.53979E-01
  0.54380E-01
  0.56559E-01
  0.55920E-01
  0.57783E-01
  0.56818E-01
  0.55905E-01
  0.57692E-01
  0.58636E-01
  0.54951E-01
  0.56708E-01
  0.52694E-01
  0.58196E-01
  0.58178E-01
 -0.52357E-01
 -0.50921E-01
 -0.44757E-01
  0.18615E-01
 -0.66968E-01
 -0.50932E-01
  0.26039E-01
 -0.54774E-01
 -0.56789E-01
 -0.58225E-01
 -0.58040E-01
 -0.38165E-01
 -0.43574E-01
 -0.50143E-01
 -0.42767E-01
 -0.39372E-01
 -0.51357E-01
 -0.57765E-01
 -0.25577E+00
 -0.26675E-01
 -0.34557E+00
 -0.29672E+00
 -0.25290E+00
  0.20847E-01
 -0.10808E-01
  0.75005E-02
 -0.34099E+00
  0.23721E-01
  0.20677E-01
  0.77387E-03
 -0.68266E-01
 -0.67862E-01
 -0.14555E-01
  0.25292E-01
  0.13658E-01
 -0.63098E-01
  0.45911E-01
  0.46954E-01
  0.43378E-01
  0.47391E-01
 -0.38998E+00
 -0.61373E-01
 -0.60949E-01
  0.39975E-02
 -0.29534E+00
 -0.41668E+00
  0.40172E-01
  0.38575E-01
 -0.53182E-01
 -0.27315E-01
 -0.30168E-01
 -0.30810E-01
 -0.31706E-01
 -0.31256E-01
 -0.32431E-01
 -0.34146E-01
 -0.30839E-01
 -0.31135E-01
 -0.25415E-01
 -0.55318E+00
 -0.38878E-01
  0.46322E-01
  0.46918E-01
  0.46176E-01
  0.45259E-01
  0.45093E-01
  0.46274E-01
  0.44153E-01
  0.43796E-01
  0.46746E-01
  0.47862E-01
  0.44864E-01
  0.42987E-01
  0.42293E-01
  0.41165E-01
  0.40776E-01
  0.39417E-01
  0.39398E-01
  0.37821E-01
  0.38124E-01
  0.36455E-01
  0.35278E-01
 -0.23975E-01
 -0.16863E+01
 -0.16635E+01
 -0.51541E-01
 -0.63903E-01
 -0.58047E-01
 -0.76324E-01
  0.95480E-02
 -0.41036E-01
 -0.66547E-01
 -0.50020E-01
 -0.45609E-01
 -0.48594E-01
 -0.28689E-02
 -0.14125E-01
  0.37926E-01
  0.43690E-01
  0.43039E-01
 -0.53226E-01
 -0.51700E-01
 -0.47117E-01
 -0.35096E+00
 -0.20625E+00
 -0.96105E-02
  0.27580E-01
  0.26509E-01
  0.40421E-01
 -0.90462E+00
 -0.56080E+00
 -0.33263E-01
 -0.32521E-01
 -0.50349E-01
 -0.52472E-01
 -0.50211E-01
 -0.54753E-01
  0.27890E-01
 -0.45349E+00
  0.38046E-01
 -0.71685E+00
 -0.23870E-01
 -0.37479E-01
 -0.39437E-01
 -0.48871E-01
 -0.45883E-01
 -0.29205E-01
 -0.34148E-01
  0.34889E-01
  0.56778E-02
  0.15095E-01
 -0.13457E-01
 -0.22286E-01
 -0.77987E-02
  0.34012E-01
  0.35058E-01
 -0.55238E-01
  0.58217E-01
 -0.57879E-01
 -0.50894E-01
 -0.54299E-01
 -0.44390E-01
 -0.30743E-01
  0.29800E-01
  0.35757E-01
 -0.56231E-01
  0.18614E-01
 -0.65723E-01
 -0.57451E-01
 -0.57521E-01
 -0.58028E+00
 -0.70178E-02
 -0.65581E-01
 -0.64329E-01
  0.31587E-01
  0.32970E-01
  0.35365E-01
  0.35658E-01
 -0.50396E-01
 -0.58813E-01
 -0.63611E-01
 -0.65265E-01
 -0.31497E-01
 -0.19963E-01
 -0.22210E-01
 -0.13301E-01
 -0.95605E-02
  0.10956E-02
 -0.97004E-02
 -0.56187E-01
  0.19288E-01
 -0.78535E+00
 -0.32702E-01
 -0.19633E-01
  0.56921E-01
  0.43522E-01
 -0.51950E-02
 -0.36744E-02
 -0.54822E+00
 -0.11282E+01
 -0.26246E+00
  0.47285E-01
 -0.51008E-01
 -0.56408E-01
 -0.78546E-01
 -0.65892E-01
 -0.45733E-01
 -0.58379E-01
  0.21944E-01
  0.12632E-01
  0.36084E-02
 -0.13448E-02
 -0.21509E+00
 -0.58937E-01
 -0.31043E-01
  0.31664E-01