# vtk DataFile Version 2.0
Unstructured Grid UFVM-ECOMOD
ASCII
DATASET UNSTRUCTURED_GRID
 POINTS         1420  float
  0.00000E+00  0.00000E+00  0.00000E+00
  0.40000E+01  0.00000E+00  0.00000E+00
  0.40000E+01  0.20000E+01  0.00000E+00
  0.00000E+00  0.20000E+01  0.00000E+00
  0.10433E+01  0.10046E+01  0.00000E+00
  0.10392E+01  0.96756E+00  0.00000E+00
  0.10272E+01  0.93281E+00  0.00000E+00
  0.10079E+01  0.90258E+00  0.00000E+00
  0.98260E+00  0.87876E+00  0.00000E+00
  0.95293E+00  0.86285E+00  0.00000E+00
  0.92072E+00  0.85585E+00  0.00000E+00
  0.88798E+00  0.85820E+00  0.00000E+00
  0.85679E+00  0.86974E+00  0.00000E+00
  0.82910E+00  0.88977E+00  0.00000E+00
  0.80665E+00  0.91701E+00  0.00000E+00
  0.79085E+00  0.94975E+00  0.00000E+00
  0.78270E+00  0.98595E+00  0.00000E+00
  0.78270E+00  0.10233E+01  0.00000E+00
  0.79085E+00  0.10595E+01  0.00000E+00
  0.80665E+00  0.10922E+01  0.00000E+00
  0.82910E+00  0.11195E+01  0.00000E+00
  0.85679E+00  0.11395E+01  0.00000E+00
  0.88798E+00  0.11511E+01  0.00000E+00
  0.92072E+00  0.11534E+01  0.00000E+00
  0.95293E+00  0.11464E+01  0.00000E+00
  0.98260E+00  0.11305E+01  0.00000E+00
  0.10079E+01  0.11067E+01  0.00000E+00
  0.10272E+01  0.10764E+01  0.00000E+00
  0.10392E+01  0.10417E+01  0.00000E+00
  0.10000E+00  0.00000E+00  0.00000E+00
  0.20000E+00  0.00000E+00  0.00000E+00
  0.30000E+00  0.00000E+00  0.00000E+00
  0.40000E+00  0.00000E+00  0.00000E+00
  0.50000E+00  0.00000E+00  0.00000E+00
  0.60000E+00  0.00000E+00  0.00000E+00
  0.70000E+00  0.00000E+00  0.00000E+00
  0.80000E+00  0.00000E+00  0.00000E+00
  0.90000E+00  0.00000E+00  0.00000E+00
  0.10000E+01  0.00000E+00  0.00000E+00
  0.11000E+01  0.00000E+00  0.00000E+00
  0.12000E+01  0.00000E+00  0.00000E+00
  0.13000E+01  0.00000E+00  0.00000E+00
  0.14000E+01  0.00000E+00  0.00000E+00
  0.15000E+01  0.00000E+00  0.00000E+00
  0.16000E+01  0.00000E+00  0.00000E+00
  0.17000E+01  0.00000E+00  0.00000E+00
  0.18000E+01  0.00000E+00  0.00000E+00
  0.19000E+01  0.00000E+00  0.00000E+00
  0.20000E+01  0.00000E+00  0.00000E+00
  0.21000E+01  0.00000E+00  0.00000E+00
  0.22000E+01  0.00000E+00  0.00000E+00
  0.23000E+01  0.00000E+00  0.00000E+00
  0.24000E+01  0.00000E+00  0.00000E+00
  0.25000E+01  0.00000E+00  0.00000E+00
  0.26000E+01  0.00000E+00  0.00000E+00
  0.27000E+01  0.00000E+00  0.00000E+00
  0.28000E+01  0.00000E+00  0.00000E+00
  0.29000E+01  0.00000E+00  0.00000E+00
  0.30000E+01  0.00000E+00  0.00000E+00
  0.31000E+01  0.00000E+00  0.00000E+00
  0.32000E+01  0.00000E+00  0.00000E+00
  0.33000E+01  0.00000E+00  0.00000E+00
  0.34000E+01  0.00000E+00  0.00000E+00
  0.35000E+01  0.00000E+00  0.00000E+00
  0.36000E+01  0.00000E+00  0.00000E+00
  0.37000E+01  0.00000E+00  0.00000E+00
  0.38000E+01  0.00000E+00  0.00000E+00
  0.39000E+01  0.00000E+00  0.00000E+00
  0.40000E+01  0.10000E+00  0.00000E+00
  0.40000E+01  0.20000E+00  0.00000E+00
  0.40000E+01  0.30000E+00  0.00000E+00
  0.40000E+01  0.40000E+00  0.00000E+00
  0.40000E+01  0.50000E+00  0.00000E+00
  0.40000E+01  0.60000E+00  0.00000E+00
  0.40000E+01  0.70000E+00  0.00000E+00
  0.40000E+01  0.80000E+00  0.00000E+00
  0.40000E+01  0.90000E+00  0.00000E+00
  0.40000E+01  0.10000E+01  0.00000E+00
  0.40000E+01  0.11000E+01  0.00000E+00
  0.40000E+01  0.12000E+01  0.00000E+00
  0.40000E+01  0.13000E+01  0.00000E+00
  0.40000E+01  0.14000E+01  0.00000E+00
  0.40000E+01  0.15000E+01  0.00000E+00
  0.40000E+01  0.16000E+01  0.00000E+00
  0.40000E+01  0.17000E+01  0.00000E+00
  0.40000E+01  0.18000E+01  0.00000E+00
  0.40000E+01  0.19000E+01  0.00000E+00
  0.39000E+01  0.20000E+01  0.00000E+00
  0.38000E+01  0.20000E+01  0.00000E+00
  0.37000E+01  0.20000E+01  0.00000E+00
  0.36000E+01  0.20000E+01  0.00000E+00
  0.35000E+01  0.20000E+01  0.00000E+00
  0.34000E+01  0.20000E+01  0.00000E+00
  0.33000E+01  0.20000E+01  0.00000E+00
  0.32000E+01  0.20000E+01  0.00000E+00
  0.31000E+01  0.20000E+01  0.00000E+00
  0.30000E+01  0.20000E+01  0.00000E+00
  0.29000E+01  0.20000E+01  0.00000E+00
  0.28000E+01  0.20000E+01  0.00000E+00
  0.27000E+01  0.20000E+01  0.00000E+00
  0.26000E+01  0.20000E+01  0.00000E+00
  0.25000E+01  0.20000E+01  0.00000E+00
  0.24000E+01  0.20000E+01  0.00000E+00
  0.23000E+01  0.20000E+01  0.00000E+00
  0.22000E+01  0.20000E+01  0.00000E+00
  0.21000E+01  0.20000E+01  0.00000E+00
  0.20000E+01  0.20000E+01  0.00000E+00
  0.19000E+01  0.20000E+01  0.00000E+00
  0.18000E+01  0.20000E+01  0.00000E+00
  0.17000E+01  0.20000E+01  0.00000E+00
  0.16000E+01  0.20000E+01  0.00000E+00
  0.15000E+01  0.20000E+01  0.00000E+00
  0.14000E+01  0.20000E+01  0.00000E+00
  0.13000E+01  0.20000E+01  0.00000E+00
  0.12000E+01  0.20000E+01  0.00000E+00
  0.11000E+01  0.20000E+01  0.00000E+00
  0.10000E+01  0.20000E+01  0.00000E+00
  0.90000E+00  0.20000E+01  0.00000E+00
  0.80000E+00  0.20000E+01  0.00000E+00
  0.70000E+00  0.20000E+01  0.00000E+00
  0.60000E+00  0.20000E+01  0.00000E+00
  0.50000E+00  0.20000E+01  0.00000E+00
  0.40000E+00  0.20000E+01  0.00000E+00
  0.30000E+00  0.20000E+01  0.00000E+00
  0.20000E+00  0.20000E+01  0.00000E+00
  0.10000E+00  0.20000E+01  0.00000E+00
  0.00000E+00  0.19000E+01  0.00000E+00
  0.00000E+00  0.18000E+01  0.00000E+00
  0.00000E+00  0.17000E+01  0.00000E+00
  0.00000E+00  0.16000E+01  0.00000E+00
  0.00000E+00  0.15000E+01  0.00000E+00
  0.00000E+00  0.14000E+01  0.00000E+00
  0.00000E+00  0.13000E+01  0.00000E+00
  0.00000E+00  0.12000E+01  0.00000E+00
  0.00000E+00  0.11000E+01  0.00000E+00
  0.00000E+00  0.10000E+01  0.00000E+00
  0.00000E+00  0.90000E+00  0.00000E+00
  0.00000E+00  0.80000E+00  0.00000E+00
  0.00000E+00  0.70000E+00  0.00000E+00
  0.00000E+00  0.60000E+00  0.00000E+00
  0.00000E+00  0.50000E+00  0.00000E+00
  0.00000E+00  0.40000E+00  0.00000E+00
  0.00000E+00  0.30000E+00  0.00000E+00
  0.00000E+00  0.20000E+00  0.00000E+00
  0.00000E+00  0.10000E+00  0.00000E+00
  0.19476E+01  0.85910E-01  0.00000E+00
  0.19458E+01  0.19136E+01  0.00000E+00
  0.29500E+01  0.19134E+01  0.00000E+00
  0.24474E+01  0.19097E+01  0.00000E+00
  0.27468E+01  0.83590E-01  0.00000E+00
  0.23486E+01  0.86060E-01  0.00000E+00
  0.39202E+01  0.95555E+00  0.00000E+00
  0.31524E+01  0.79860E-01  0.00000E+00
  0.15434E+01  0.81060E-01  0.00000E+00
  0.15561E+01  0.19190E+01  0.00000E+00
  0.33401E+01  0.19193E+01  0.00000E+00
  0.55000E+00  0.86600E-01  0.00000E+00
  0.54321E+00  0.18970E+01  0.00000E+00
  0.12576E+01  0.94170E-01  0.00000E+00
  0.12595E+01  0.19031E+01  0.00000E+00
  0.85260E-01  0.64891E+00  0.00000E+00
  0.39224E+01  0.13485E+01  0.00000E+00
  0.97850E-01  0.13456E+01  0.00000E+00
  0.85263E+00  0.92690E-01  0.00000E+00
  0.90232E+00  0.82868E+00  0.00000E+00
  0.39134E+01  0.55000E+00  0.00000E+00
  0.85000E+00  0.19134E+01  0.00000E+00
  0.90219E+00  0.11796E+01  0.00000E+00
  0.73730E-01  0.95061E+00  0.00000E+00
  0.34521E+01  0.83790E-01  0.00000E+00
  0.36500E+01  0.19134E+01  0.00000E+00
  0.86600E-01  0.16500E+01  0.00000E+00
  0.91260E-01  0.35125E+00  0.00000E+00
  0.39122E+01  0.16529E+01  0.00000E+00
  0.79770E-01  0.11522E+01  0.00000E+00
  0.10500E+01  0.19134E+01  0.00000E+00
  0.10436E+01  0.96320E-01  0.00000E+00
  0.34641E+00  0.19165E+01  0.00000E+00
  0.35117E+00  0.98680E-01  0.00000E+00
  0.17489E+01  0.19152E+01  0.00000E+00
  0.17477E+01  0.85050E-01  0.00000E+00
  0.21486E+01  0.19136E+01  0.00000E+00
  0.21494E+01  0.85650E-01  0.00000E+00
  0.25494E+01  0.86540E-01  0.00000E+00
  0.39145E+01  0.11516E+01  0.00000E+00
  0.36500E+01  0.85140E-01  0.00000E+00
  0.29463E+01  0.83430E-01  0.00000E+00
  0.31423E+01  0.19179E+01  0.00000E+00
  0.27493E+01  0.19098E+01  0.00000E+00
  0.39010E+01  0.34178E+00  0.00000E+00
  0.39152E+01  0.74696E+00  0.00000E+00
  0.90200E-01  0.18440E+01  0.00000E+00
  0.38461E+01  0.84370E-01  0.00000E+00
  0.93600E-01  0.14922E+00  0.00000E+00
  0.38527E+01  0.19149E+01  0.00000E+00
  0.93499E+00  0.11827E+01  0.00000E+00
  0.91733E+00  0.12123E+01  0.00000E+00
  0.95207E+00  0.12164E+01  0.00000E+00
  0.93165E+00  0.12471E+01  0.00000E+00
  0.97084E+00  0.12505E+01  0.00000E+00
  0.89437E+00  0.12359E+01  0.00000E+00
  0.94819E+00  0.12843E+01  0.00000E+00
  0.99065E+00  0.12884E+01  0.00000E+00
  0.96461E+00  0.13251E+01  0.00000E+00
  0.10110E+01  0.13286E+01  0.00000E+00
  0.10361E+01  0.12902E+01  0.00000E+00
  0.10582E+01  0.13315E+01  0.00000E+00
  0.10845E+01  0.12921E+01  0.00000E+00
  0.11074E+01  0.13353E+01  0.00000E+00
  0.11351E+01  0.12931E+01  0.00000E+00
  0.11593E+01  0.13388E+01  0.00000E+00
  0.11880E+01  0.12934E+01  0.00000E+00
  0.12152E+01  0.13430E+01  0.00000E+00
  0.12465E+01  0.12932E+01  0.00000E+00
  0.12751E+01  0.13479E+01  0.00000E+00
  0.13089E+01  0.12933E+01  0.00000E+00
  0.13392E+01  0.13518E+01  0.00000E+00
  0.13744E+01  0.12961E+01  0.00000E+00
  0.13422E+01  0.12370E+01  0.00000E+00
  0.14103E+01  0.12382E+01  0.00000E+00
  0.13774E+01  0.11782E+01  0.00000E+00
  0.14470E+01  0.11795E+01  0.00000E+00
  0.14109E+01  0.11172E+01  0.00000E+00
  0.14840E+01  0.11192E+01  0.00000E+00
  0.14492E+01  0.10568E+01  0.00000E+00
  0.15224E+01  0.10578E+01  0.00000E+00
  0.15578E+01  0.11226E+01  0.00000E+00
  0.15980E+01  0.10587E+01  0.00000E+00
  0.16344E+01  0.11264E+01  0.00000E+00
  0.16757E+01  0.10600E+01  0.00000E+00
  0.17140E+01  0.11301E+01  0.00000E+00
  0.17569E+01  0.10614E+01  0.00000E+00
  0.17947E+01  0.11329E+01  0.00000E+00
  0.18396E+01  0.10629E+01  0.00000E+00
  0.18817E+01  0.11349E+01  0.00000E+00
  0.19258E+01  0.10641E+01  0.00000E+00
  0.14867E+01  0.99385E+00  0.00000E+00
  0.19700E+01  0.11392E+01  0.00000E+00
  0.20134E+01  0.10659E+01  0.00000E+00
  0.20560E+01  0.11394E+01  0.00000E+00
  0.21025E+01  0.10675E+01  0.00000E+00
  0.21507E+01  0.11553E+01  0.00000E+00
  0.21942E+01  0.10716E+01  0.00000E+00
  0.22424E+01  0.11506E+01  0.00000E+00
  0.22867E+01  0.10733E+01  0.00000E+00
  0.17993E+01  0.99189E+00  0.00000E+00
  0.20571E+01  0.99091E+00  0.00000E+00
[...]
 POINT_DATA         1420
  
 SCALARS WL      float 1
 LOOKUP_TABLE default
  0.88145E-02
 -0.12316E-03
  0.35044E-02
  0.50631E-02
 -0.29973E-01
 -0.25125E-01
 -0.21519E-01
 -0.19719E-01
 -0.18932E-01
 -0.21379E-01
 -0.31016E-01
 -0.34286E-01
 -0.21225E-01
 -0.46622E-02
  0.12410E-01
  0.23250E-01
  0.28455E-01
  0.28617E-01
  0.22826E-01
  0.11178E-01
 -0.50686E-02
 -0.26307E-01
 -0.50737E-01
 -0.63629E-01
 -0.53548E-01
 -0.44657E-01
 -0.41670E-01
 -0.39703E-01
 -0.35840E-01
  0.84842E-02
  0.77244E-02
  0.66194E-02
  0.52265E-02
  0.36159E-02
  0.17828E-02
 -0.16140E-03
 -0.19069E-02
 -0.34791E-02
 -0.45600E-02
 -0.49500E-02
 -0.46574E-02
 -0.38726E-02
 -0.29095E-02
 -0.19242E-02
 -0.10428E-02
 -0.25451E-03
  0.51214E-03
  0.12224E-02
  0.17779E-02
  0.21710E-02
  0.24828E-02
  0.28235E-02
  0.33262E-02
  0.40452E-02
  0.48773E-02
  0.55934E-02
  0.59101E-02
  0.57054E-02
  0.50499E-02
  0.41333E-02
  0.31895E-02
  0.23685E-02
  0.17393E-02
  0.12862E-02
  0.94910E-03
  0.60085E-03
  0.23978E-03
 -0.35721E-04
  0.00000E+00
  0.00000E+00
  0.00000E+00
  0.00000E+00
  0.00000E+00
  0.00000E+00
  0.00000E+00
  0.00000E+00
  0.00000E+00
  0.00000E+00
  0.00000E+00
  0.00000E+00
  0.00000E+00
  0.00000E+00
  0.00000E+00
  0.00000E+00
  0.00000E+00
  0.00000E+00
  0.00000E+00
  0.52706E-02
  0.77442E-02
  0.93280E-02
  0.97175E-02
  0.89038E-02
  0.73232E-02
  0.55887E-02
  0.41954E-02
  0.33591E-02
  0.30112E-02
  0.29839E-02
  0.31159E-02
  0.32745E-02
  0.33854E-02
  0.34430E-02
  0.34354E-02
  0.33751E-02
  0.32653E-02
  0.31040E-02
  0.28746E-02
  0.25637E-02
  0.21271E-02
  0.16177E-02
  0.10619E-02
  0.52464E-03
  0.16055E-03
  0.94495E-04
  0.44152E-03
  0.12133E-02
  0.21859E-02
  0.32635E-02
  0.41515E-02
  0.48023E-02
  0.52114E-02
  0.53002E-02
  0.53138E-02
  0.52496E-02
  0.51702E-02
  0.50936E-02
  0.51522E-02
  0.54327E-02
  0.58508E-02
  0.64384E-02
  0.71177E-02
  0.78282E-02
  0.85713E-02
  0.91963E-02
  0.97009E-02
  0.10045E-01
  0.10190E-01
  0.10165E-01
  0.10012E-01
  0.97908E-02
  0.95487E-02
  0.93143E-02
  0.91027E-02
  0.89653E-02
  0.88740E-02
  0.15931E-02
  0.26908E-02
  0.30106E-02
  0.34771E-02
  0.57933E-02
  0.30412E-02
 -0.24142E-02
  0.36808E-02
 -0.15552E-02
  0.80709E-03
  0.63668E-02
  0.28470E-02
  0.53291E-02
 -0.42676E-02
  0.10565E-04
  0.98253E-02
  0.14441E-02
  0.83200E-02
 -0.27696E-02
 -0.28170E-01
 -0.10818E-02
  0.36166E-02
 -0.48495E-01
  0.10179E-01
  0.15549E-02
  0.95788E-02
  0.61424E-02
  0.89612E-02
  0.45680E-02
  0.95361E-02
  0.14797E-02
 -0.48492E-02
  0.53646E-02
  0.60121E-02
  0.18701E-02
  0.17102E-03
  0.31885E-02
  0.23800E-02
  0.44278E-02
 -0.95306E-03
  0.81331E-03
  0.54668E-02
  0.36836E-02
  0.32573E-02
 -0.17132E-03
 -0.21690E-02
  0.53180E-02
  0.86068E-04
  0.86203E-02
  0.64219E-02
 -0.51768E-01
 -0.35980E-01
 -0.37139E-01
 -0.27532E-01
 -0.29000E-01
 -0.23937E-01
 -0.21677E-01
 -0.22980E-01
 -0.17253E-01
 -0.18145E-01
 -0.22589E-01
 -0.17596E-01
 -0.20613E-01
 -0.15601E-01
 -0.17123E-01
 -0.12516E-01
 -0.12846E-01
 -0.86592E-02
 -0.73610E-02
 -0.43482E-02
 -0.18166E-02
 -0.47175E-03
  0.21759E-02
  0.95520E-03
  0.38558E-02
 -0.23004E-02
 -0.23630E-02
 -0.13201E-01
 -0.11969E-01
 -0.23136E-01
 -0.18025E-01
 -0.10883E-01
 -0.15015E-01
 -0.12213E-01
 -0.15426E-01
 -0.16095E-01
 -0.18519E-01
 -0.20212E-01
 -0.20554E-01
 -0.19140E-01
 -0.17575E-01
 -0.25824E-01
 -0.13144E-01
 -0.11879E-01
 -0.77106E-02
 -0.74588E-02
 -0.35152E-02
 -0.53299E-02
 -0.24138E-02
 -0.51119E-02
 -0.16632E-01
 -0.96012E-02
 -0.20174E-02
 -0.55967E-02
 -0.19651E-02
 -0.54244E-02
 -0.15452E-02
 -0.39838E-02
 -0.82421E-03
 -0.25009E-02
 -0.64283E-03
 -0.19211E-02
 -0.12601E-02
 -0.23997E-02
 -0.26597E-02
 -0.37405E-02
 -0.43559E-02
 -0.96102E-02
 -0.20707E-02
 -0.48513E-02
  0.20360E-02
 -0.48527E-02
 -0.13700E-01
 -0.11751E-01
 -0.11682E-01
 -0.41638E-02
 -0.33873E-02
 -0.16189E-01
 -0.95385E-02
 -0.71657E-02
 -0.29463E-02
 -0.19695E-02
 -0.71638E-03
 -0.63797E-02
  0.23006E-03
 -0.39037E-01
  0.47810E-03
  0.17826E-02
  0.14206E-02
 -0.59448E-02
 -0.35650E-02
 -0.65117E-03
 -0.34095E-01
 -0.18881E-01
 -0.31251E-01
 -0.23100E-01
 -0.24789E-02
 -0.29084E-02
 -0.25839E-03
  0.22029E-02
  0.32971E-02
  0.31766E-02
  0.12875E-02
 -0.39334E-01
 -0.32106E-01
 -0.38130E-01
 -0.28620E-01
 -0.21100E-01
 -0.17743E-01
 -0.12225E-01
 -0.21698E-01
 -0.13939E-01
 -0.15607E-01
 -0.10942E-01
 -0.11790E-01
  0.29831E-02
  0.38210E-02
 -0.88771E-02
 -0.93415E-02
 -0.77018E-02
 -0.29448E-02
 -0.84074E-03
 -0.78885E-03
  0.14216E-02
  0.20744E-02
  0.35469E-02
  0.45940E-02
  0.52517E-02
  0.64950E-02
  0.66209E-02
  0.78178E-02
 -0.47532E-02
  0.81240E-02
  0.91954E-02
  0.60124E-02
  0.10083E-01
  0.10506E-01
  0.11759E-01
  0.11634E-01
  0.13133E-01
  0.75524E-02
  0.12410E-01
  0.13898E-01
  0.69681E-04
  0.26927E-02
  0.29043E-02
  0.26155E-01
 -0.11669E-01
 -0.93046E-02
 -0.11046E-01
 -0.89823E-02
 -0.77960E-02
 -0.74478E-02
 -0.82881E-02
 -0.67192E-02
 -0.84128E-02
 -0.72145E-02
 -0.54150E-02
 -0.52499E-02
 -0.35093E-02
 -0.26656E-02
 -0.12027E-02
  0.11296E-03
  0.10769E-02
  0.28079E-02
  0.18574E-01
  0.31101E-02
  0.50616E-02
  0.48203E-02
  0.66882E-02
  0.62058E-02
  0.77953E-02
  0.86177E-02
  0.92132E-02
  0.16623E-02
  0.10272E-01
  0.30226E-02
  0.10426E-01
 -0.38094E-01
 -0.54972E-02
  0.36760E-02
 -0.13754E-01
 -0.65487E-02
 -0.53664E-02
  0.12767E-01
  0.73100E-02
  0.24476E-02
  0.46821E-02
  0.38298E-02
  0.51217E-02
 -0.21176E-02
 -0.34871E-02
  0.29283E-02
  0.95668E-03
  0.59455E-02
  0.65892E-02
  0.72300E-02
 -0.83684E-02
  0.54420E-02
  0.26530E-02
  0.10534E-01
 -0.92018E-02
  0.32374E-02
  0.14032E-01
  0.12704E-01
 -0.18894E-01
 -0.48835E-02
 -0.37748E-02
 -0.38356E-02
 -0.24072E-02
 -0.20606E-02
 -0.97450E-03
 -0.28120E-03
  0.35817E-03
  0.11683E-02
  0.16665E-02
  0.24220E-02
  0.17979E-02
  0.28559E-02
  0.32035E-02
  0.33210E-02
  0.34786E-02
  0.28461E-02
  0.28814E-02
  0.10858E-02
  0.15750E-02
 -0.14541E-02
  0.18842E-03
 -0.34941E-02
 -0.19619E-03
 -0.32501E-02
  0.86535E-03
 -0.81854E-03
  0.25307E-02
  0.17229E-02
  0.39001E-02
  0.34028E-02
  0.47877E-02
 -0.67061E-02
  0.43003E-02
  0.39485E-02
  0.45219E-02
  0.19425E-02
 -0.52487E-02
  0.63656E-02
 -0.74655E-02
  0.67178E-02
 -0.14462E-02
 -0.42110E-01
  0.70926E-02
  0.81792E-02
  0.75486E-02
  0.34278E-02
  0.21483E-02
 -0.12089E-02
 -0.22458E-02
  0.59277E-02
 -0.13559E-01
  0.11262E-01
  0.15573E-01
  0.15215E-01
  0.64846E-02
  0.68457E-02
  0.75223E-02
  0.37743E-02
  0.32055E-02
  0.20043E-02
  0.11655E-01
 -0.22155E-02
  0.17291E-01
  0.43605E-02
 -0.37362E-02
 -0.46276E-02
  0.18968E-03
  0.39847E-02
  0.33379E-02
  0.46312E-02
 -0.60630E-02
  0.92396E-03
 -0.61312E-02
  0.31070E-02
  0.16070E-01
 -0.75083E-02
  0.76752E-02
  0.21404E-02
  0.21013E-02
  0.14155E-01
 -0.43269E-02
 -0.27833E-02
 -0.43854E-02
 -0.27659E-02
  0.17717E-01
  0.41637E-02
  0.70015E-02
  0.83988E-02
 -0.83941E-02
  0.62769E-02
  0.58841E-02
  0.64151E-02
  0.76028E-02
 -0.12987E-02
  0.24525E-02
  0.15277E-02
  0.68204E-03
 -0.39268E-03
  0.71632E-03
  0.18466E-01
  0.16237E-01
  0.34095E-02
  0.28367E-02
  0.19188E-02
  0.29453E-02
  0.25736E-02
  0.34162E-02
  0.34354E-02
  0.39445E-02
  0.40890E-02
  0.42346E-02
  0.43717E-02
  0.42467E-02
  0.42954E-02
  0.40779E-02
  0.40036E-02
  0.37650E-02
  0.35188E-02
  0.33399E-02
  0.28118E-02
  0.28176E-02
  0.20409E-02
  0.22539E-02
  0.12085E-02
  0.16384E-02
  0.39757E-03
  0.11211E-02
 -0.22590E-03
  0.80750E-03
 -0.32645E-03
  0.70014E-03
  0.10672E-03
  0.77534E-03
  0.10132E-02
  0.81053E-03
  0.35343E-02
  0.15855E-02
 -0.19394E-03
 -0.90790E-03
 -0.11789E-02
  0.83486E-02
  0.70539E-02
 -0.84974E-02
  0.72632E-03
  0.38055E-03
  0.52389E-02
  0.55038E-02
  0.45930E-02
  0.47614E-02
  0.31945E-02
  0.40450E-02
  0.32537E-02
  0.26412E-02
  0.48153E-02
  0.37082E-02
 -0.36758E-02
 -0.22163E-02
  0.27640E-02
  0.23910E-02
 -0.27760E-01
 -0.41696E-02
 -0.37581E-02
 -0.44385E-02
 -0.24548E-02
 -0.15671E-02
 -0.19763E-02
 -0.10910E-01
 -0.56684E-02
 -0.28425E-02
  0.83943E-02
  0.70622E-02
  0.18404E-01
  0.15244E-01
  0.21757E-01
  0.55553E-02
 -0.22032E-01
 -0.67590E-02
 -0.60428E-02
 -0.20854E-02
 -0.50083E-03
  0.60848E-03
  0.12577E-04
 -0.12706E-01
 -0.15643E-01
 -0.14269E-01
 -0.15948E-01
 -0.20031E-01
 -0.18206E-01
 -0.24818E-01
 -0.23564E-01
 -0.30980E-01
 -0.29665E-01
  0.57501E-02
  0.54171E-02
  0.16639E-01
  0.13074E-01
  0.12050E-01
  0.33353E-02
  0.18239E-02
 -0.21250E-02
 -0.47640E-02
  0.27788E-03
  0.34186E-02
 -0.15186E-01
 -0.13456E-01
 -0.15865E-01
 -0.13430E-01
 -0.71788E-02
  0.12137E-02
  0.22677E-02
 -0.35520E-01
 -0.34000E-01
 -0.29181E-02
 -0.26759E-02
  0.96319E-02
  0.68720E-02
 -0.14847E-01
  0.58289E-02
  0.54832E-02
  0.52014E-02
  0.48996E-02
  0.39859E-02
 -0.30550E-02
  0.10447E-01
 -0.29578E-01
 -0.33644E-01
 -0.35274E-01
 -0.32474E-01
 -0.29973E-01
 -0.25549E-01
 -0.32731E-01
  0.14036E-01
  0.32236E-02
  0.42807E-02
  0.46925E-02
  0.25913E-02
  0.20007E-02
  0.17299E-02
  0.13542E-02
  0.83709E-03
  0.10638E-02
  0.56313E-02
 -0.36076E-01
  0.97859E-03
  0.50935E-04
 -0.11244E-03
  0.42169E-02
  0.14288E-02
  0.36043E-02
  0.19966E-02
  0.50649E-02
  0.14070E-02
  0.31415E-03
 -0.34583E-03
 -0.13312E-02
 -0.21643E-02
 -0.29207E-02
 -0.37335E-02
 -0.42495E-02
  0.58103E-03
 -0.54567E-03
 -0.14121E-02
 -0.34449E-02
 -0.64892E-02
 -0.38965E-02
 -0.32076E-01
  0.89131E-03
 -0.14402E-02
  0.41337E-02
  0.27078E-02
  0.19514E-02
 -0.24489E-01
 -0.32757E-01
 -0.58558E-02
 -0.55415E-02
  0.76372E-03
 -0.20046E-03
 -0.17792E-01
  0.32369E-03
 -0.21312E-03
 -0.59064E-02
  0.75976E-02
  0.60779E-02
  0.52646E-02
  0.87308E-02
  0.95224E-02
  0.10369E-01
  0.96340E-02
  0.10254E-01
  0.10944E-01
  0.10582E-01
  0.11164E-01
  0.10159E-01
 -0.16188E-01
 -0.12995E-01
  0.86586E-03
  0.15209E-02
  0.58633E-02
  0.91634E-03
 -0.21232E-01
  0.25392E-02
  0.31356E-02
  0.58474E-02
 -0.69017E-02
 -0.12667E-02
  0.28399E-03
  0.83770E-03
 -0.19752E-02
  0.56070E-02
 -0.11149E-01
 -0.97352E-02
 -0.11401E-01
 -0.63955E-02
 -0.10762E-02
 -0.51058E-02
  0.76584E-02
  0.10663E-01
  0.11066E-01
 -0.40252E-02
  0.49807E-02
  0.11667E-01
 -0.35919E-03
  0.12054E-01
 -0.19350E-02
  0.96559E-04
  0.18700E-02
 -0.13543E-02
 -0.12339E-02
 -0.21186E-01
 -0.65607E-02
 -0.30352E-01
 -0.18388E-02
 -0.33456E-02
 -0.18456E-01
 -0.60077E-02
  0.25206E-02
 -0.96318E-02
  0.30440E-02
  0.12280E-01
  0.87475E-02
  0.14586E-02
  0.13918E-01
  0.64795E-02
  0.87477E-03
  0.51685E-02
  0.10123E-02
 -0.44877E-02
  0.18048E-01
  0.16986E-01
  0.20802E-01
  0.13775E-01
  0.15364E-01
 -0.23894E-02
 -0.68591E-02
  0.15906E-02
  0.61910E-02
 -0.40859E-01
 -0.40185E-01
 -0.19918E-01
 -0.85910E-02
  0.40723E-02
  0.47343E-02
 -0.40839E-01
 -0.38672E-01
 -0.30423E-01
  0.15078E-01
  0.19774E-01
  0.22508E-02
 -0.26628E-01
  0.28234E-01
 -0.35060E-01
  0.78714E-02
  0.90602E-02
  0.62054E-02
 -0.41095E-02
  0.87552E-02
  0.77323E-02
  0.25129E-01
 -0.43630E-01
 -0.18542E-02
 -0.65221E-02
 -0.21581E-02
 -0.17885E-02
 -0.12577E-02
 -0.17177E-01
 -0.13033E-03
 -0.35035E-02
  0.45570E-02
  0.24888E-02
 -0.22367E-01
  0.88043E-02
  0.44769E-02
  0.33155E-02
  0.40116E-02
 -0.20445E-01
  0.52270E-02
  0.47768E-02
  0.49639E-02
  0.40617E-02
  0.37287E-02
  0.32733E-02
  0.10530E-01
  0.10728E-01
  0.10240E-01
  0.10217E-01
  0.10945E-01
  0.10114E-01
 -0.55220E-02
  0.48695E-02
  0.24690E-01
  0.54689E-02
  0.63678E-02
  0.69427E-02
  0.75002E-02
  0.78448E-02
 -0.35688E-02
 -0.46141E-02
 -0.39526E-01
 -0.35104E-01
 -0.35887E-01
 -0.28674E-01
  0.29941E-02
  0.40114E-02
  0.95488E-02
  0.93464E-02
  0.99148E-02
  0.90265E-02
  0.94497E-02
  0.85972E-02
  0.82243E-02
  0.89261E-02
 -0.23249E-02
 -0.33501E-02
 -0.10579E-01
  0.77244E-02
  0.74465E-02
  0.69543E-02
  0.66683E-02
  0.63794E-02
  0.72142E-02
  0.85935E-02
  0.20155E-01
 -0.76339E-02
 -0.91753E-02
 -0.22317E-03
  0.54941E-02
  0.57253E-02
 -0.12238E-02
 -0.26206E-01
 -0.15967E-01
 -0.17371E-01
  0.15119E-01
  0.94659E-03
  0.26541E-02
  0.18313E-01
 -0.15144E-01
  0.98087E-02
 -0.41525E-01
 -0.16487E-01
 -0.41258E-02
 -0.50642E-02
 -0.49363E-02
 -0.49127E-02
 -0.15955E-01
 -0.42797E-02
 -0.11360E-01
  0.73075E-02
 -0.24050E-01
  0.70513E-02
 -0.20506E-02
 -0.94855E-03
  0.25510E-02
 -0.30252E-01
 -0.26910E-01
  0.49870E-02
 -0.24980E-01
 -0.17156E-01
 -0.50700E-02
 -0.31099E-01
  0.57663E-02
 -0.80900E-03
 -0.61885E-02
 -0.10808E-01
 -0.10087E-02
 -0.52089E-02
  0.87005E-03
 -0.64907E-03
 -0.18869E-01
  0.13797E-01
 -0.21287E-01
 -0.30713E-02
  0.89862E-02
  0.42483E-02
  0.57480E-03
 -0.15468E-03
  0.32856E-03
 -0.64124E-02
  0.46469E-02
 -0.55370E-02
  0.39541E-02
  0.66931E-03
 -0.37610E-01
  0.83557E-02
  0.81448E-02
  0.11902E-01
  0.11519E-01
  0.11846E-01
 -0.39494E-01
  0.13608E-02
  0.15964E-02
  0.20563E-02
  0.16783E-02
  0.20358E-02
  0.12805E-02
  0.23976E-02
  0.24481E-02
 -0.66274E-03
 -0.32861E-03
  0.69065E-03
  0.49225E-03
  0.13508E-02
  0.14989E-02
  0.19952E-02
  0.21099E-02
  0.26477E-02
  0.25188E-02
 -0.64843E-02
  0.90808E-03
  0.27811E-02
 -0.56736E-02
 -0.62040E-02
 -0.85596E-02
 -0.89747E-02
 -0.19508E-01
 -0.18269E-02
 -0.57013E-02
 -0.38576E-02
 -0.77020E-02
 -0.77689E-02
  0.25348E-01
  0.45485E-02
  0.27561E-02
  0.54090E-02
  0.78010E-02
 -0.90916E-02
  0.20422E-02
  0.12965E-01
  0.10217E-01
  0.10062E-01
  0.95509E-02
  0.94716E-02
  0.91013E-02
  0.89600E-02
  0.94607E-02
 -0.80656E-03
  0.84979E-02
  0.11982E-02
  0.98671E-03
 -0.10470E-02
 -0.72981E-02
 -0.11312E-01
 -0.10994E-01
 -0.13654E-01
 -0.12212E-01
  0.20441E-02
  0.23846E-02
  0.25722E-02
  0.26608E-02
  0.26600E-02
  0.28139E-02
  0.28688E-02
  0.92808E-02
  0.59223E-02
  0.29833E-02
  0.30671E-02
  0.32639E-02
  0.31293E-02
  0.28456E-02
  0.27794E-02
  0.33322E-02
  0.34157E-02
  0.34267E-02
  0.35290E-02
  0.36037E-02
  0.37199E-02
  0.34742E-02
  0.36069E-02
  0.33080E-02
  0.39662E-02
 -0.35973E-01
 -0.49881E-03
 -0.45925E-02
 -0.20888E-02
 -0.69377E-02
 -0.10900E-01
  0.72300E-03
 -0.14582E-03
  0.11493E-02
 -0.10600E-02
  0.28458E-02
  0.35315E-02
  0.29301E-02
  0.32003E-02
 -0.11449E-01
 -0.11703E-01
 -0.74959E-02
 -0.67863E-02
 -0.88662E-02
 -0.27613E-02
 -0.25629E-02
  0.17702E-02
  0.94127E-03
 -0.20380E-01
  0.36381E-02
  0.39135E-02
  0.47536E-02
  0.41258E-02
  0.33240E-02
  0.34186E-03
 -0.21501E-02
  0.52751E-02
  0.55070E-02
  0.54193E-02
  0.58598E-02
  0.57290E-02
  0.58794E-02
  0.72572E-02
 -0.26370E-02
  0.11594E-02
  0.31293E-02
  0.13186E-02
  0.34073E-02
  0.35112E-02
  0.33646E-02
  0.36647E-02
 -0.50910E-02
  0.52360E-02
 -0.48763E-03
 -0.79750E-02
  0.20377E-02
 -0.39910E-02
  0.32457E-02
  0.21569E-02
  0.15364E-02
  0.27466E-02
 -0.41320E-02
  0.28869E-03
 -0.12805E-02
 -0.15719E-02
  0.30998E-02
  0.31657E-02
  0.13133E-02
  0.11384E-01
  0.12780E-01
 -0.22052E-02
  0.23858E-02
  0.26678E-02
  0.62317E-04
  0.50581E-03
  0.20687E-02
  0.60514E-03
  0.46423E-02
  0.41506E-02
  0.23158E-02
  0.23687E-03
 -0.45028E-03
 -0.17661E-02
  0.44626E-03
  0.30066E-03
 -0.65563E-04
  0.20317E-03
  0.66574E-03
  0.85171E-02
  0.94338E-02
  0.11650E-02
  0.15352E-02
  0.58891E-02
  0.46774E-02
  0.47606E-02
 -0.29081E-02
 -0.17084E-02
 -0.66453E-03
 -0.60750E-04
  0.47381E-02
  0.31370E-02
  0.31369E-02
  0.14830E-02
  0.10754E-03
  0.62175E-02
  0.61888E-02
  0.26524E-02
  0.32002E-02
 -0.40974E-02
 -0.25509E-02
 -0.98589E-02
  0.90383E-02
  0.38125E-04
  0.21857E-02
  0.31880E-02
  0.50548E-02
 -0.26582E-02
  0.50246E-02
  0.23414E-03
  0.17399E-02
  0.19144E-02
  0.32047E-02
 -0.17185E-02
  0.50871E-02
  0.55932E-02
  0.52899E-02
 -0.36171E-02
  0.10761E-03
 -0.23651E-02
  0.16503E-02
  0.15522E-02
  0.50102E-02
 -0.93893E-02
 -0.60443E-02
  0.41396E-02
  0.66151E-03
  0.40682E-02
  0.65801E-02
 -0.13375E-01
 -0.91125E-02
  0.28262E-02
  0.80858E-02
  0.16644E-02
  0.30464E-02
  0.17500E-02
  0.46727E-02
 -0.16301E-02
  0.19467E-02
  0.88098E-02
  0.12507E-02
 -0.12148E-01
  0.89284E-02
  0.55091E-02
 -0.14411E-01
  0.50509E-02
 -0.27485E-04
  0.38965E-02
 -0.45914E-02
  0.47218E-02
 -0.42523E-02
  0.98666E-02
  0.99181E-03
  0.85697E-02
 -0.16372E-01
 -0.75792E-02
  0.75910E-03
 -0.10810E-01
 -0.15003E-01
 -0.10410E-02
  0.98016E-03
 -0.10558E-01
  0.33757E-02
  0.12114E-02
 -0.26307E-02
  0.64272E-03
 -0.18350E-01
 -0.40378E-02
  0.21027E-03
 -0.28565E-01
  0.78912E-02
 -0.97751E-02
 -0.57366E-02
  0.55582E-02
 -0.61296E-03
 -0.52766E-02
 -0.49604E-02
  0.80346E-02
  0.60843E-02
  0.24881E-02
 -0.79362E-04
 -0.30038E-02
  0.71577E-02
 -0.11715E-02
 -0.17580E-02
 -0.86737E-02
  0.86078E-02
  0.81726E-02
  0.51996E-02
 -0.47362E-02
 -0.32726E-02
 -0.22418E-01
 -0.12178E-01
 -0.82068E-02
 -0.63206E-02
  0.10347E-01
 -0.64597E-03
  0.39228E-04
  0.28128E-02
  0.46093E-02
  0.85165E-02
  0.96013E-02
  0.52285E-02
 -0.99437E-02
 -0.14334E-01
 -0.78145E-02
  0.32535E-03
  0.14426E-01
  0.40777E-03
 -0.16363E-01
  0.35675E-02
 -0.40880E-02
  0.23029E-01
 -0.17072E-03
  0.25678E-02
 -0.15698E-02
 -0.92388E-02
  0.11282E-01
  0.21268E-04
  0.47860E-02
 -0.13771E-02
  0.62276E-02
 -0.18068E-01
  0.11783E-01
  0.12803E-01
  0.18223E-01
  0.10835E-01
  0.26900E-02
 -0.13627E-01
  0.94982E-02
  0.86284E-03
 -0.89784E-02
  0.39555E-02
 -0.23700E-02
  0.10773E-01
  0.26862E-02
 -0.55438E-02
  0.91455E-02
 -0.77477E-02
  0.11010E-02
  0.10888E-02
  0.31429E-03
  0.38002E-02
  0.63374E-03
 -0.32564E-02
 -0.12971E-01
  0.69875E-02
 -0.17717E-01
  0.43177E-02
 -0.68027E-03
  0.32794E-02
  0.28022E-02
  0.99720E-02
  0.20264E-02
  0.56639E-03
 -0.23172E-01
  0.25484E-02
 -0.14185E-01
 -0.52184E-03
  0.42590E-02
  0.25121E-02
  0.39792E-02
  0.32364E-02
 -0.23076E-02
 -0.13015E-01
  0.10219E-02
  0.97203E-03
 -0.75310E-02
 -0.57585E-03
  0.20813E-02
  0.50112E-02
 -0.14528E-01
  0.38143E-02
 -0.56964E-02
  0.87893E-02
 -0.17548E-01
  0.10355E-01
 -0.65433E-03
  0.27876E-02
  0.17131E-02
 -0.35737E-02
  0.52720E-02
 -0.29426E-03
  0.54723E-02
  0.19856E-02
 -0.33200E-01
  0.58537E-02
  0.32040E-02
  0.12994E-01
  0.10331E-01
  0.57650E-02
  0.76430E-02
  0.66667E-02
  0.52124E-02
  0.60420E-02
  0.89353E-02
  0.43359E-02
  0.56435E-02
 -0.60186E-03
 -0.38515E-01
 -0.24599E-02
 -0.53106E-02
 -0.67983E-02
  0.62204E-02
 -0.34142E-02
 -0.76227E-02
 -0.78789E-03
 -0.17192E-02
  0.20953E-01
  0.22606E-01
  0.81869E-02
  0.37796E-02
  0.20510E-01
  0.86427E-02
 -0.16661E-03
 -0.35045E-01
 -0.11814E-01
  0.84055E-03
 -0.46065E-02
  0.61463E-02
 -0.39908E-02
  0.14092E-02
 -0.33862E-02
 -0.37532E-02
  0.12718E-01
 -0.10066E-01
  0.32316E-02
  0.34034E-02
  0.77983E-02
 -0.31867E-01
  0.44446E-02
 -0.12065E-01
 -0.44014E-01
 -0.15316E-02
  0.31227E-02
  0.55604E-02
  0.89458E-02
  0.22387E-03
  0.13309E-02
 -0.41090E-02
 -0.12866E-01
 -0.38024E-01
  0.36731E-02
 -0.91140E-02
  0.32338E-02
  0.33633E-02
 -0.38089E-03
  0.64389E-02
 -0.25530E-01
  0.86840E-02
  0.51249E-02
 -0.30702E-01
 -0.77520E-04
  0.43532E-02
  0.19633E-03
 -0.11266E-01
 -0.34019E-02
  0.12996E-01
  0.40883E-02
 -0.37649E-01
  0.16188E-01
  0.98915E-02
  0.83414E-02
  0.14588E-01
  0.10048E-01
 -0.68491E-02
 -0.10962E-01
  0.13864E-01
 -0.47668E-02
  0.33607E-02
  0.10269E-01
  0.11384E-01
  0.97501E-02
 -0.24886E-02
 -0.17433E-01
 -0.12394E-01
  0.53491E-02
 -0.11351E-01
 -0.15866E-01
  0.10132E-01
 -0.15661E-01
  0.16042E-02
  0.98880E-02
 -0.20455E-02
  0.97010E-03
 -0.53290E-02
 -0.15450E-03
  0.11154E-01
  0.23087E-01
 -0.31686E-01
  0.17755E-02
  0.70413E-02
 -0.11139E-02
 -0.35471E-01
 -0.25710E-01
 -0.55566E-02
 -0.40580E-02
 -0.13028E-02
 -0.85540E-03
  0.66079E-02
  0.79616E-02
  0.13858E-02
 -0.17246E-01
 -0.11410E-01
 -0.26317E-01
  0.77418E-02
 -0.12524E-01
  0.55192E-02
  0.10230E-01
  0.85919E-02
  0.67597E-04
 -0.88864E-02
 -0.13617E-01
 -0.31550E-02
  0.30731E-02
  0.78851E-02
 -0.12126E-01
 -0.10044E-01
 -0.39743E-01
 -0.40954E-01
  0.11264E-01
  0.74166E-02
  0.42988E-02
  0.21882E-02
 -0.16441E-02
  
 VECTORS vector_U float