# vtk DataFile Version 2.0
Unstructured Grid UFVM-ECOMOD
ASCII
DATASET UNSTRUCTURED_GRID
 POINTS         2086  float
  0.00000E+00  0.00000E+00  0.00000E+00
  0.40000E+01  0.00000E+00  0.00000E+00
  0.40000E+01  0.20000E+01  0.00000E+00
  0.00000E+00  0.20000E+01  0.00000E+00
  0.11787E+01  0.12812E+01  0.00000E+00
  0.11720E+01  0.12579E+01  0.00000E+00
  0.11523E+01  0.12361E+01  0.00000E+00
  0.11208E+01  0.12171E+01  0.00000E+00
  0.10795E+01  0.12021E+01  0.00000E+00
  0.10311E+01  0.11921E+01  0.00000E+00
  0.97842E+00  0.11877E+01  0.00000E+00
  0.92495E+00  0.11892E+01  0.00000E+00
  0.87399E+00  0.11964E+01  0.00000E+00
  0.82875E+00  0.12090E+01  0.00000E+00
  0.79207E+00  0.12262E+01  0.00000E+00
  0.76626E+00  0.12467E+01  0.00000E+00
  0.75294E+00  0.12695E+01  0.00000E+00
  0.75294E+00  0.12930E+01  0.00000E+00
  0.76626E+00  0.13158E+01  0.00000E+00
  0.79207E+00  0.13363E+01  0.00000E+00
  0.82875E+00  0.13535E+01  0.00000E+00
  0.87399E+00  0.13661E+01  0.00000E+00
  0.92495E+00  0.13733E+01  0.00000E+00
  0.97842E+00  0.13748E+01  0.00000E+00
  0.10311E+01  0.13704E+01  0.00000E+00
  0.10795E+01  0.13604E+01  0.00000E+00
  0.11208E+01  0.13454E+01  0.00000E+00
  0.11523E+01  0.13264E+01  0.00000E+00
  0.11720E+01  0.13046E+01  0.00000E+00
  0.11275E+01  0.10550E+01  0.00000E+00
  0.11246E+01  0.10357E+01  0.00000E+00
  0.11162E+01  0.10177E+01  0.00000E+00
  0.11028E+01  0.10019E+01  0.00000E+00
  0.10851E+01  0.98956E+00  0.00000E+00
  0.10644E+01  0.98129E+00  0.00000E+00
  0.10420E+01  0.97765E+00  0.00000E+00
  0.10192E+01  0.97887E+00  0.00000E+00
  0.99740E+00  0.98488E+00  0.00000E+00
  0.97809E+00  0.99529E+00  0.00000E+00
  0.96243E+00  0.10094E+01  0.00000E+00
  0.95141E+00  0.10265E+01  0.00000E+00
  0.94572E+00  0.10453E+01  0.00000E+00
  0.94572E+00  0.10647E+01  0.00000E+00
  0.95141E+00  0.10835E+01  0.00000E+00
  0.96243E+00  0.11005E+01  0.00000E+00
  0.97809E+00  0.11147E+01  0.00000E+00
  0.99740E+00  0.11251E+01  0.00000E+00
  0.10192E+01  0.11311E+01  0.00000E+00
  0.10420E+01  0.11323E+01  0.00000E+00
  0.10644E+01  0.11287E+01  0.00000E+00
  0.10851E+01  0.11204E+01  0.00000E+00
  0.11028E+01  0.11080E+01  0.00000E+00
  0.11162E+01  0.10923E+01  0.00000E+00
  0.11246E+01  0.10743E+01  0.00000E+00
  0.62875E+00  0.11344E+01  0.00000E+00
  0.62759E+00  0.10960E+01  0.00000E+00
  0.62419E+00  0.10600E+01  0.00000E+00
  0.61876E+00  0.10287E+01  0.00000E+00
  0.61163E+00  0.10040E+01  0.00000E+00
  0.60327E+00  0.98756E+00  0.00000E+00
  0.59419E+00  0.98030E+00  0.00000E+00
  0.58497E+00  0.98273E+00  0.00000E+00
  0.57617E+00  0.99469E+00  0.00000E+00
  0.56837E+00  0.10154E+01  0.00000E+00
  0.56204E+00  0.10436E+01  0.00000E+00
  0.55759E+00  0.10776E+01  0.00000E+00
  0.55529E+00  0.11150E+01  0.00000E+00
  0.55529E+00  0.11537E+01  0.00000E+00
  0.55759E+00  0.11912E+01  0.00000E+00
  0.56204E+00  0.12251E+01  0.00000E+00
  0.56837E+00  0.12533E+01  0.00000E+00
  0.57617E+00  0.12741E+01  0.00000E+00
  0.58497E+00  0.12860E+01  0.00000E+00
  0.59419E+00  0.12885E+01  0.00000E+00
  0.60327E+00  0.12812E+01  0.00000E+00
  0.61163E+00  0.12647E+01  0.00000E+00
  0.61876E+00  0.12401E+01  0.00000E+00
  0.62419E+00  0.12087E+01  0.00000E+00
  0.62759E+00  0.11728E+01  0.00000E+00
  0.10000E+00  0.00000E+00  0.00000E+00
  0.20000E+00  0.00000E+00  0.00000E+00
  0.30000E+00  0.00000E+00  0.00000E+00
  0.40000E+00  0.00000E+00  0.00000E+00
  0.50000E+00  0.00000E+00  0.00000E+00
  0.60000E+00  0.00000E+00  0.00000E+00
  0.70000E+00  0.00000E+00  0.00000E+00
  0.80000E+00  0.00000E+00  0.00000E+00
  0.90000E+00  0.00000E+00  0.00000E+00
  0.10000E+01  0.00000E+00  0.00000E+00
  0.11000E+01  0.00000E+00  0.00000E+00
  0.12000E+01  0.00000E+00  0.00000E+00
  0.13000E+01  0.00000E+00  0.00000E+00
  0.14000E+01  0.00000E+00  0.00000E+00
  0.15000E+01  0.00000E+00  0.00000E+00
  0.16000E+01  0.00000E+00  0.00000E+00
  0.17000E+01  0.00000E+00  0.00000E+00
  0.18000E+01  0.00000E+00  0.00000E+00
  0.19000E+01  0.00000E+00  0.00000E+00
  0.20000E+01  0.00000E+00  0.00000E+00
  0.21000E+01  0.00000E+00  0.00000E+00
  0.22000E+01  0.00000E+00  0.00000E+00
  0.23000E+01  0.00000E+00  0.00000E+00
  0.24000E+01  0.00000E+00  0.00000E+00
  0.25000E+01  0.00000E+00  0.00000E+00
  0.26000E+01  0.00000E+00  0.00000E+00
  0.27000E+01  0.00000E+00  0.00000E+00
  0.28000E+01  0.00000E+00  0.00000E+00
  0.29000E+01  0.00000E+00  0.00000E+00
  0.30000E+01  0.00000E+00  0.00000E+00
  0.31000E+01  0.00000E+00  0.00000E+00
  0.32000E+01  0.00000E+00  0.00000E+00
  0.33000E+01  0.00000E+00  0.00000E+00
  0.34000E+01  0.00000E+00  0.00000E+00
  0.35000E+01  0.00000E+00  0.00000E+00
  0.36000E+01  0.00000E+00  0.00000E+00
  0.37000E+01  0.00000E+00  0.00000E+00
  0.38000E+01  0.00000E+00  0.00000E+00
  0.39000E+01  0.00000E+00  0.00000E+00
  0.40000E+01  0.10000E+00  0.00000E+00
  0.40000E+01  0.20000E+00  0.00000E+00
  0.40000E+01  0.30000E+00  0.00000E+00
  0.40000E+01  0.40000E+00  0.00000E+00
  0.40000E+01  0.50000E+00  0.00000E+00
  0.40000E+01  0.60000E+00  0.00000E+00
  0.40000E+01  0.70000E+00  0.00000E+00
  0.40000E+01  0.80000E+00  0.00000E+00
  0.40000E+01  0.90000E+00  0.00000E+00
  0.40000E+01  0.10000E+01  0.00000E+00
  0.40000E+01  0.11000E+01  0.00000E+00
  0.40000E+01  0.12000E+01  0.00000E+00
  0.40000E+01  0.13000E+01  0.00000E+00
  0.40000E+01  0.14000E+01  0.00000E+00
  0.40000E+01  0.15000E+01  0.00000E+00
  0.40000E+01  0.16000E+01  0.00000E+00
  0.40000E+01  0.17000E+01  0.00000E+00
  0.40000E+01  0.18000E+01  0.00000E+00
  0.40000E+01  0.19000E+01  0.00000E+00
  0.39000E+01  0.20000E+01  0.00000E+00
  0.38000E+01  0.20000E+01  0.00000E+00
  0.37000E+01  0.20000E+01  0.00000E+00
  0.36000E+01  0.20000E+01  0.00000E+00
  0.35000E+01  0.20000E+01  0.00000E+00
  0.34000E+01  0.20000E+01  0.00000E+00
  0.33000E+01  0.20000E+01  0.00000E+00
  0.32000E+01  0.20000E+01  0.00000E+00
  0.31000E+01  0.20000E+01  0.00000E+00
  0.30000E+01  0.20000E+01  0.00000E+00
  0.29000E+01  0.20000E+01  0.00000E+00
  0.28000E+01  0.20000E+01  0.00000E+00
  0.27000E+01  0.20000E+01  0.00000E+00
  0.26000E+01  0.20000E+01  0.00000E+00
  0.25000E+01  0.20000E+01  0.00000E+00
  0.24000E+01  0.20000E+01  0.00000E+00
  0.23000E+01  0.20000E+01  0.00000E+00
  0.22000E+01  0.20000E+01  0.00000E+00
  0.21000E+01  0.20000E+01  0.00000E+00
  0.20000E+01  0.20000E+01  0.00000E+00
  0.19000E+01  0.20000E+01  0.00000E+00
  0.18000E+01  0.20000E+01  0.00000E+00
  0.17000E+01  0.20000E+01  0.00000E+00
  0.16000E+01  0.20000E+01  0.00000E+00
  0.15000E+01  0.20000E+01  0.00000E+00
  0.14000E+01  0.20000E+01  0.00000E+00
  0.13000E+01  0.20000E+01  0.00000E+00
  0.12000E+01  0.20000E+01  0.00000E+00
  0.11000E+01  0.20000E+01  0.00000E+00
  0.10000E+01  0.20000E+01  0.00000E+00
  0.90000E+00  0.20000E+01  0.00000E+00
  0.80000E+00  0.20000E+01  0.00000E+00
  0.70000E+00  0.20000E+01  0.00000E+00
  0.60000E+00  0.20000E+01  0.00000E+00
  0.50000E+00  0.20000E+01  0.00000E+00
  0.40000E+00  0.20000E+01  0.00000E+00
  0.30000E+00  0.20000E+01  0.00000E+00
  0.20000E+00  0.20000E+01  0.00000E+00
  0.10000E+00  0.20000E+01  0.00000E+00
  0.00000E+00  0.19000E+01  0.00000E+00
  0.00000E+00  0.18000E+01  0.00000E+00
  0.00000E+00  0.17000E+01  0.00000E+00
  0.00000E+00  0.16000E+01  0.00000E+00
  0.00000E+00  0.15000E+01  0.00000E+00
  0.00000E+00  0.14000E+01  0.00000E+00
  0.00000E+00  0.13000E+01  0.00000E+00
  0.00000E+00  0.12000E+01  0.00000E+00
  0.00000E+00  0.11000E+01  0.00000E+00
  0.00000E+00  0.10000E+01  0.00000E+00
  0.00000E+00  0.90000E+00  0.00000E+00
  0.00000E+00  0.80000E+00  0.00000E+00
  0.00000E+00  0.70000E+00  0.00000E+00
  0.00000E+00  0.60000E+00  0.00000E+00
  0.00000E+00  0.50000E+00  0.00000E+00
  0.00000E+00  0.40000E+00  0.00000E+00
  0.00000E+00  0.30000E+00  0.00000E+00
  0.00000E+00  0.20000E+00  0.00000E+00
  0.00000E+00  0.10000E+00  0.00000E+00
  0.11961E+01  0.12633E+01  0.00000E+00
  0.21488E+01  0.93320E-01  0.00000E+00
  0.61866E+00  0.98978E+00  0.00000E+00
  0.20489E+01  0.19184E+01  0.00000E+00
  0.25498E+01  0.19136E+01  0.00000E+00
  0.29499E+01  0.86560E-01  0.00000E+00
  0.93236E+00  0.10310E+01  0.00000E+00
  0.17510E+01  0.72450E-01  0.00000E+00
  0.29467E+01  0.19168E+01  0.00000E+00
  0.25487E+01  0.85720E-01  0.00000E+00
  0.76221E+00  0.13471E+01  0.00000E+00
  0.39134E+01  0.10499E+01  0.00000E+00
  0.11777E+01  0.13352E+01  0.00000E+00
  0.75033E+00  0.75620E-01  0.00000E+00
  0.13476E+01  0.80200E-01  0.00000E+00
  0.10427E+01  0.86980E-01  0.00000E+00
  0.16534E+01  0.19146E+01  0.00000E+00
  0.33491E+01  0.86080E-01  0.00000E+00
  0.76560E-01  0.54986E+00  0.00000E+00
  0.33536E+01  0.19187E+01  0.00000E+00
  0.64251E+00  0.10384E+01  0.00000E+00
  0.54363E+00  0.10247E+01  0.00000E+00
  0.39158E+01  0.64933E+00  0.00000E+00
  0.53844E+00  0.12429E+01  0.00000E+00
  0.11152E+01  0.13830E+01  0.00000E+00
  0.39057E+01  0.13553E+01  0.00000E+00
  0.45348E+00  0.19192E+01  0.00000E+00
  0.84329E+00  0.13986E+01  0.00000E+00
  0.10069E+01  0.14153E+01  0.00000E+00
  0.79140E-01  0.15509E+01  0.00000E+00
  0.51664E+00  0.11388E+01  0.00000E+00
  0.13387E+01  0.19132E+01  0.00000E+00
  0.61809E+00  0.12788E+01  0.00000E+00
  0.44149E+00  0.86000E-01  0.00000E+00
  0.82010E-01  0.85167E+00  0.00000E+00
  0.79235E+00  0.11912E+01  0.00000E+00
  0.73934E+00  0.19100E+01  0.00000E+00
  0.97720E-01  0.12541E+01  0.00000E+00
  0.36625E+01  0.99060E-01  0.00000E+00
  0.36500E+01  0.19142E+01  0.00000E+00
  0.10534E+01  0.19002E+01  0.00000E+00
  0.93232E+00  0.10799E+01  0.00000E+00
  0.73234E+00  0.12821E+01  0.00000E+00
  0.11221E+01  0.11125E+01  0.00000E+00
  0.38972E+01  0.16498E+01  0.00000E+00
  0.39125E+01  0.34987E+00  0.00000E+00
  0.91360E-01  0.10554E+01  0.00000E+00
  0.66195E+00  0.11154E+01  0.00000E+00
  0.82340E-01  0.34870E+00  0.00000E+00
  0.18502E+01  0.19156E+01  0.00000E+00
  0.15459E+01  0.76350E-01  0.00000E+00
  0.19483E+01  0.85500E-01  0.00000E+00
[...]
 POINT_DATA         2086
  
 SCALARS WL      float 1
 LOOKUP_TABLE default
  0.11353E-01
  0.11104E-02
  0.38365E-02
  0.22833E-01
 -0.29123E-01
 -0.30131E-01
 -0.19363E-01
 -0.11548E-01
 -0.13101E-01
 -0.13777E-01
 -0.13593E-01
 -0.13976E-01
 -0.14159E-01
 -0.13541E-01
 -0.13065E-01
 -0.12811E-01
 -0.13847E-01
 -0.11948E-01
 -0.51374E-02
 -0.27223E-02
 -0.83422E-02
 -0.22659E-01
 -0.36917E-01
 -0.50228E-01
 -0.51541E-01
 -0.41046E-01
 -0.30000E-01
 -0.26021E-01
 -0.25580E-01
 -0.18592E-01
 -0.17969E-01
 -0.18675E-01
 -0.20069E-01
 -0.21236E-01
 -0.21354E-01
 -0.21712E-01
 -0.22577E-01
 -0.23014E-01
 -0.21799E-01
 -0.19675E-01
 -0.18275E-01
 -0.17282E-01
 -0.16200E-01
 -0.15304E-01
 -0.14635E-01
 -0.14114E-01
 -0.13785E-01
 -0.13777E-01
 -0.14134E-01
 -0.14831E-01
 -0.15438E-01
 -0.15433E-01
 -0.17604E-01
 -0.18846E-01
 -0.12321E-01
 -0.12971E-01
 -0.13167E-01
 -0.12892E-01
 -0.12681E-01
 -0.12786E-01
 -0.13301E-01
 -0.63728E-02
  0.10334E-01
  0.25993E-01
  0.35844E-01
  0.41207E-01
  0.43734E-01
  0.44247E-01
  0.42873E-01
  0.38622E-01
  0.29183E-01
  0.12285E-01
 -0.51953E-02
 -0.12110E-01
 -0.11886E-01
 -0.12224E-01
 -0.12004E-01
 -0.11285E-01
 -0.11595E-01
  0.11270E-01
  0.11040E-01
  0.10607E-01
  0.10070E-01
  0.95301E-02
  0.89536E-02
  0.85541E-02
  0.81975E-02
  0.80009E-02
  0.76972E-02
  0.72498E-02
  0.66618E-02
  0.61616E-02
  0.57886E-02
  0.56514E-02
  0.56251E-02
  0.57443E-02
  0.58704E-02
  0.60425E-02
  0.62148E-02
  0.64938E-02
  0.68655E-02
  0.73173E-02
  0.79265E-02
  0.85465E-02
  0.91540E-02
  0.96836E-02
  0.10059E-01
  0.10294E-01
  0.10382E-01
  0.10247E-01
  0.10080E-01
  0.98163E-02
  0.92938E-02
  0.85762E-02
  0.75553E-02
  0.61800E-02
  0.45446E-02
  0.24705E-02
  0.00000E+00
  0.00000E+00
  0.00000E+00
  0.00000E+00
  0.00000E+00
  0.00000E+00
  0.00000E+00
  0.00000E+00
  0.00000E+00
  0.00000E+00
  0.00000E+00
  0.00000E+00
  0.00000E+00
  0.00000E+00
  0.00000E+00
  0.00000E+00
  0.00000E+00
  0.00000E+00
  0.00000E+00
  0.49188E-02
  0.65556E-02
  0.80870E-02
  0.97664E-02
  0.11224E-01
  0.11567E-01
  0.10207E-01
  0.78695E-02
  0.59948E-02
  0.46072E-02
  0.40345E-02
  0.41120E-02
  0.46478E-02
  0.53878E-02
  0.60164E-02
  0.58733E-02
  0.52238E-02
  0.39653E-02
  0.33189E-02
  0.28993E-02
  0.24461E-02
  0.18480E-02
  0.97128E-03
 -0.27204E-03
 -0.20299E-02
 -0.46239E-02
 -0.74917E-02
 -0.95546E-02
 -0.97392E-02
 -0.73297E-02
 -0.30092E-02
  0.18326E-02
  0.64861E-02
  0.10872E-01
  0.14591E-01
  0.17614E-01
  0.20030E-01
  0.21724E-01
  0.22606E-01
  0.22980E-01
  0.23393E-01
  0.24035E-01
  0.24864E-01
  0.25817E-01
  0.26717E-01
  0.27365E-01
  0.27542E-01
  0.27051E-01
  0.25787E-01
  0.23952E-01
  0.21792E-01
  0.19506E-01
  0.17478E-01
  0.15643E-01
  0.14073E-01
  0.12912E-01
  0.12061E-01
  0.11558E-01
 -0.28986E-01
  0.67078E-02
 -0.12630E-01
  0.31341E-02
  0.55134E-02
  0.10250E-01
 -0.17760E-01
  0.58205E-02
  0.39989E-02
  0.88026E-02
 -0.39048E-02
 -0.39468E-02
 -0.25114E-01
  0.83043E-02
  0.57795E-02
  0.72289E-02
  0.33078E-03
  0.94868E-02
  0.16615E-01
  0.10791E-01
 -0.13030E-01
  0.32329E-01
  0.29316E-03
  0.35740E-01
 -0.34009E-01
 -0.35896E-02
  0.16136E-01
 -0.13411E-01
 -0.50101E-01
  0.25455E-01
  0.43481E-01
 -0.65494E-02
 -0.11827E-01
  0.99465E-02
  0.23214E-01
 -0.13326E-01
  0.44572E-02
  0.28148E-01
  0.65964E-02
  0.86193E-02
 -0.95071E-02
 -0.15622E-01
 -0.14131E-01
 -0.16073E-01
  0.22645E-02
  0.14358E-02
  0.27165E-01
 -0.12855E-01
  0.13445E-01
  0.20851E-02
  0.55619E-02
  0.61863E-02
  0.46089E-02
  0.76559E-02
  0.67218E-02
  0.41160E-02
  0.97999E-02
  0.10121E-01
 -0.14904E-02
  0.23683E-01
 -0.11728E-01
 -0.15031E-01
  0.10952E-01
 -0.12671E-01
 -0.25529E-01
 -0.27106E-01
 -0.24166E-01
 -0.27473E-01
 -0.22866E-01
 -0.28492E-01
 -0.24148E-01
 -0.30366E-01
 -0.34079E-01
 -0.36429E-01
 -0.38968E-01
 -0.41513E-01
 -0.43195E-01
 -0.45608E-01
 -0.46263E-01
 -0.48112E-01
 -0.46835E-01
 -0.47325E-01
 -0.42776E-01
 -0.41791E-01
 -0.34053E-01
 -0.32006E-01
 -0.23004E-01
 -0.20419E-01
 -0.26866E-01
 -0.16214E-01
 -0.46081E-01
 -0.26720E-01
 -0.11938E-01
 -0.20297E-01
 -0.12113E-01
 -0.14401E-01
 -0.93324E-02
 -0.10682E-01
 -0.82548E-02
 -0.58849E-02
 -0.66303E-02
 -0.85226E-02
 -0.83229E-02
 -0.36217E-02
 -0.12780E-01
 -0.30333E-02
 -0.28349E-02
  0.52514E-02
  0.53248E-02
  0.10497E-01
  0.85694E-02
 -0.96869E-02
 -0.10854E-01
 -0.18337E-01
 -0.11794E-01
 -0.13511E-01
  0.10428E-01
  0.72122E-02
 -0.14110E-01
 -0.14361E-01
 -0.12807E-01
 -0.12136E-01
 -0.13767E-01
 -0.10169E-01
 -0.75080E-02
 -0.56044E-02
 -0.81112E-02
 -0.45491E-02
 -0.71720E-02
 -0.47070E-02
 -0.97742E-02
 -0.78342E-02
 -0.63829E-02
  0.79708E-02
  0.44541E-02
 -0.25866E-02
 -0.48139E-02
 -0.96820E-02
 -0.82324E-02
 -0.13975E-01
 -0.11848E-01
 -0.26518E-02
 -0.17341E-01
 -0.13414E-01
 -0.17995E-01
 -0.12428E-01
 -0.81606E-02
 -0.68019E-02
 -0.94567E-02
 -0.33249E-02
  0.54415E-02
  0.78803E-02
  0.23826E-02
 -0.45067E-02
 -0.62613E-02
 -0.21620E-02
 -0.22050E-01
 -0.24715E-01
 -0.20585E-01
 -0.21278E-01
  0.59011E-03
 -0.19836E-01
 -0.73587E-03
 -0.30976E-02
 -0.32476E-02
 -0.58776E-02
 -0.48908E-02
 -0.74406E-02
 -0.22257E-01
 -0.57596E-02
 -0.21566E-01
 -0.79935E-02
 -0.58291E-02
 -0.76743E-02
 -0.52365E-02
 -0.68763E-02
 -0.42957E-02
 -0.55368E-02
 -0.29684E-02
 -0.39044E-02
 -0.13983E-02
 -0.19885E-02
  0.39505E-03
 -0.33844E-04
 -0.24425E-02
 -0.30283E-03
 -0.27586E-02
 -0.46132E-03
  0.17735E-02
  0.19250E-02
  0.38887E-02
  0.43850E-02
  0.61209E-02
  0.69768E-02
 -0.30337E-02
  0.84447E-02
  0.74594E-02
  0.95162E-02
 -0.21218E-01
  0.96476E-02
 -0.53044E-02
 -0.57742E-02
 -0.17564E-01
 -0.16425E-01
  0.50085E-02
 -0.37996E-02
  0.10371E-02
 -0.30104E-02
  0.77980E-03
 -0.65063E-03
  0.14498E-02
 -0.89698E-02
 -0.14076E-01
 -0.41481E-01
 -0.19169E-01
 -0.79794E-02
 -0.87056E-02
  0.20422E-02
  0.38460E-02
  0.36018E-02
  0.84225E-02
  0.10272E-01
 -0.14542E-01
 -0.12688E-01
 -0.14593E-01
 -0.10635E-01
 -0.11796E-01
  0.37679E-02
 -0.10857E-01
 -0.11565E-01
 -0.95079E-02
 -0.12110E-01
 -0.10267E-01
 -0.12573E-01
 -0.11196E-01
 -0.13438E-01
 -0.13549E-01
  0.39937E-02
  0.23890E-02
  0.54524E-02
 -0.68259E-02
 -0.82329E-02
 -0.87424E-02
 -0.13993E-01
 -0.13920E-01
  0.91492E-02
  0.10678E-01
  0.11943E-01
 -0.39682E-01
 -0.12103E-01
  0.51768E-02
 -0.98129E-02
 -0.56824E-02
 -0.59524E-02
  0.63639E-02
  0.11979E-01
  0.96243E-02
 -0.10353E-01
 -0.36423E-02
 -0.37110E-02
 -0.14319E-01
 -0.14118E-01
 -0.14394E-01
 -0.15290E-01
 -0.12708E-01
 -0.18218E-01
  0.96740E-02
  0.57418E-02
  0.67876E-02
  0.73175E-02
 -0.15911E-01
 -0.21146E-01
  0.13414E-01
 -0.13794E-01
 -0.13962E-01
 -0.14300E-01
 -0.14133E-01
 -0.19135E-02
 -0.20766E-02
  0.81946E-02
 -0.84122E-02
 -0.93332E-02
 -0.14435E-01
 -0.10174E-01
 -0.13053E-01
 -0.59128E-02
  0.58658E-02
  0.46406E-02
 -0.14832E-01
 -0.15386E-01
  0.13014E-01
  0.68920E-02
 -0.61766E-02
 -0.70786E-02
 -0.10178E-01
 -0.79688E-02
 -0.42582E-02
 -0.45775E-02
 -0.93512E-03
 -0.62474E-03
  0.28811E-02
  0.41402E-02
  0.72407E-02
  0.98428E-02
  0.11797E-01
  0.15330E-01
  0.15788E-01
  0.19678E-01
  0.18749E-01
  0.22526E-01
  0.20868E-01
  0.23953E-01
  0.22140E-01
 -0.10980E-01
  0.26245E-01
  0.26723E-01
  0.29472E-01
  0.19456E-01
  0.20550E-01
 -0.59055E-03
 -0.88416E-03
 -0.28080E-01
 -0.41076E-02
  0.24214E-03
 -0.51608E-03
  0.27464E-02
  0.25474E-02
  0.46910E-02
  0.47834E-02
  0.46718E-02
  0.59917E-02
  0.58738E-02
  0.67671E-02
  0.66215E-02
  0.26297E-02
  0.50897E-02
  0.32405E-02
  0.56341E-02
  0.64426E-02
  0.67417E-02
  0.42813E-02
  0.70096E-02
  0.70300E-02
  0.72181E-02
  0.71138E-02
  0.69480E-02
  0.69536E-02
 -0.15059E-01
 -0.10808E-01
 -0.66124E-02
 -0.99135E-02
 -0.53317E-02
 -0.70521E-02
 -0.27819E-02
 -0.25026E-02
 -0.31170E-03
 -0.14443E-02
  0.46649E-03
 -0.21180E-02
 -0.23091E-03
 -0.31521E-02
 -0.84503E-02
  0.69782E-02
  0.66776E-02
  0.64177E-02
  0.69684E-02
 -0.44547E-02
  0.88692E-02
  0.75508E-02
 -0.29140E-02
 -0.48972E-02
 -0.43992E-02
  0.23975E-02
 -0.85234E-02
  0.57551E-02
  0.72737E-02
 -0.18542E-01
 -0.12311E-01
 -0.15177E-01
  0.29054E-03
  0.14456E-04
  0.57528E-02
 -0.14236E-01
 -0.14426E-01
 -0.13949E-01
 -0.44467E-01
 -0.20391E-02
 -0.40814E-02
  0.11779E-01
  0.12557E-01
 -0.17577E-01
 -0.21311E-01
  0.20169E-01
 -0.32408E-02
 -0.85528E-02
  0.22739E-01
  0.20981E-01
  0.14741E-01
  0.28841E-01
  0.31621E-01
 -0.11712E-01
 -0.13696E-01
  0.68733E-02
  0.61547E-02
  0.67937E-02
  0.74331E-02
  0.73512E-02
  0.65808E-02
  0.72500E-02
  0.68107E-02
  0.77758E-02
 -0.71681E-03
 -0.38415E-01
  0.62769E-02
  0.71058E-02
  0.79428E-02
  0.79073E-02
 -0.15446E-01
 -0.16524E-01
 -0.71604E-02
 -0.54191E-02
 -0.31816E-02
  0.75293E-02
  0.10579E-02
  0.61143E-03
 -0.11023E-02
 -0.74826E-03
  0.12846E-02
 -0.36282E-03
  0.20460E-02
  0.39694E-03
 -0.34383E-02
 -0.21743E-02
  0.12536E-02
 -0.13613E-02
  0.16440E-02
 -0.14497E-02
 -0.14432E-01
 -0.17562E-01
  0.74079E-02
  0.58893E-02
  0.12405E-02
 -0.25278E-02
  0.92156E-02
 -0.14661E-01
  0.20726E-02
  0.19097E-03
 -0.41244E-02
 -0.13996E-01
  0.79261E-02
 -0.70792E-02
 -0.16383E-01
 -0.19423E-01
 -0.17751E-01
 -0.20336E-01
 -0.18439E-01
 -0.20316E-01
 -0.18723E-01
 -0.20209E-01
 -0.18949E-01
 -0.20866E-01
 -0.19186E-01
 -0.21630E-01
 -0.63791E-02
  0.45443E-02
 -0.18923E-01
 -0.21385E-01
 -0.17351E-01
 -0.19325E-01
 -0.14112E-01
 -0.16081E-01
 -0.20784E-01
 -0.18068E-01
 -0.21529E-01
 -0.19742E-01
 -0.22409E-01
 -0.22615E-01
 -0.24530E-01
 -0.18838E-01
 -0.14621E-01
 -0.75707E-02
 -0.10313E-01
 -0.60970E-02
  0.63356E-02
 -0.35272E-02
  0.82460E-02
  0.71282E-02
  0.94304E-02
 -0.14358E-01
 -0.14542E-01
 -0.20107E-01
 -0.27004E-01
 -0.27818E-01
  0.55479E-02
 -0.12126E-01
 -0.12286E-01
 -0.38497E-02
 -0.24480E-01
 -0.27071E-01
 -0.23402E-01
 -0.25332E-01
 -0.15039E-01
 -0.33476E-02
  0.77012E-02
  0.30091E-01
  0.32605E-01
  0.27920E-01
  0.15736E-01
  0.76667E-03
  0.30841E-02
 -0.36944E-02
 -0.31530E-01
 -0.10138E-01
  0.53583E-03
 -0.26459E-02
  0.10306E-02
 -0.27044E-01
 -0.23017E-01
 -0.26563E-01
  0.43245E-02
 -0.16400E-01
 -0.18041E-01
  0.13465E-01
  0.53949E-02
  0.47193E-02
 -0.18523E-01
 -0.17773E-01
 -0.22042E-01
 -0.15157E-01
 -0.18734E-01
 -0.11131E-01
 -0.91572E-02
 -0.52265E-02
 -0.63948E-02
 -0.13396E-02
 -0.21170E-02
  0.22751E-02
  0.16454E-02
  0.56216E-02
  0.46907E-02
  0.89198E-02
  0.87738E-02
  0.12510E-01
  0.12993E-01
  0.16224E-01
  0.17340E-01
  0.19889E-01
  0.21803E-01
  0.18373E-01
  0.82503E-02
  0.22988E-01
  0.25297E-01
  0.91539E-02
  0.25404E-01
  0.27767E-01
  0.20169E-01
  0.27350E-02
  0.28760E-01
  0.30248E-01
  0.28861E-01
  0.23416E-01
  0.32105E-01
  0.32447E-01
  0.73051E-03
  0.25237E-01
  0.23487E-01
  0.35379E-01
 -0.16407E-01
  0.11454E-01
  0.12056E-01
 -0.10318E-01
 -0.11859E-01
 -0.87219E-02
 -0.18084E-01
 -0.89800E-02
 -0.12558E-01
 -0.13156E-01
  0.35125E-01
 -0.97172E-02
  0.34051E-01
  0.13187E-01
  0.69692E-02
  0.78707E-02
  0.86567E-02
  0.85802E-02
 -0.13521E-01
 -0.21472E-01
  0.30037E-01
 -0.93981E-02
  0.31746E-01
  0.39815E-02
 -0.20607E-02
 -0.22053E-01
 -0.13688E-01
 -0.13543E-01
 -0.23792E-01
  0.92548E-02
  0.81230E-02
  0.90766E-02
  0.60751E-02
  0.58978E-02
  0.69374E-02
  0.58916E-02
  0.45564E-02
  0.47940E-02
  0.32110E-02
  0.36872E-02
  0.19946E-02
  0.27223E-02
  0.10120E-02
  0.19677E-02
  0.35470E-02
  0.29703E-02
  0.15658E-02
  0.27344E-02
  0.16650E-02
  0.29191E-02
  0.43594E-02
  0.23414E-02
  0.35123E-02
  0.39355E-02
  0.44400E-02
  0.44588E-02
 -0.40631E-02
 -0.12262E-01
 -0.14421E-01
 -0.13065E-01
 -0.14425E-01
 -0.12746E-01
 -0.14980E-01
 -0.13240E-01
 -0.10862E-01
 -0.10637E-01
 -0.10042E-01
 -0.66977E-02
 -0.54570E-02
 -0.66115E-03
  0.21768E-02
 -0.24004E-02
  0.60980E-02
  0.77226E-02
 -0.14330E-01
  0.32456E-01
  0.21037E-01
  0.84989E-02
 -0.92841E-02
  0.19012E-01
  0.19392E-01
 -0.14998E-01
  0.24208E-02
  0.32587E-02
  0.44093E-03
  0.28860E-02
  0.12506E-01
  0.92412E-02
  0.69521E-02
  0.71510E-02
 -0.20274E-01
  0.30500E-01
 -0.26582E-02
 -0.26496E-02
 -0.55015E-02
 -0.22851E-02
 -0.47179E-02
 -0.16127E-02
  0.90612E-02
 -0.75319E-02
  0.41571E-02
  0.51154E-02
  0.51503E-02
  0.86788E-02
  0.74863E-02
 -0.16938E-02
  0.58470E-02
  0.68877E-02
 -0.49013E-02
  0.78889E-02
  0.18165E-01
 -0.11298E-01
  0.87261E-02
  0.13381E-01
  0.22792E-01
  0.94455E-02
 -0.21739E-01
 -0.21669E-01
 -0.22947E-01
 -0.27107E-01
  0.69189E-02
 -0.12884E-01
 -0.12723E-01
 -0.12200E-01
 -0.12729E-01
  0.93107E-02
 -0.24229E-01
 -0.28624E-01
 -0.70563E-02
 -0.17717E-01
 -0.16501E-01
 -0.13768E-01
  0.25008E-01
  0.23607E-01
  0.21845E-01
  0.22295E-01
  0.20373E-01
 -0.12374E-01
 -0.14595E-01
  0.33221E-02
  0.22750E-02
  0.66374E-02
  0.47272E-02
 -0.64106E-02
 -0.16532E-01
 -0.23084E-01
  0.14595E-02
 -0.13435E-02
 -0.77272E-02
  0.67108E-02
  0.36740E-01
  0.38644E-01
 -0.12267E-01
 -0.11878E-01
  0.91691E-03
  0.20941E-02
  0.29379E-01
 -0.21725E-01
 -0.93533E-02
 -0.12930E-01
 -0.12607E-01
 -0.13118E-01
  0.11513E-01
  0.35624E-02
  0.56104E-02
 -0.16435E-01
 -0.56039E-02
 -0.21061E-01
  0.59602E-02
 -0.16317E-01
 -0.14304E-01
  0.14112E-02
 -0.57141E-02
  0.42911E-02
 -0.54767E-02
 -0.76297E-02
 -0.10384E-01
  0.40874E-02
 -0.19194E-01
  0.84372E-02
  0.84098E-02
  0.25349E-03
  0.53732E-02
 -0.15741E-01
  0.74549E-02
 -0.51006E-02
 -0.47903E-02
 -0.18916E-02
 -0.14469E-01
 -0.73124E-02
  0.56420E-02
 -0.15307E-01
 -0.13664E-01
 -0.13503E-01
 -0.13553E-01
 -0.19676E-01
 -0.19968E-01
 -0.14964E-01
  0.39406E-02
  0.63731E-02
  0.62901E-02
  0.78832E-02
  0.83176E-02
  0.81751E-02
  0.84785E-02
 -0.13322E-01
 -0.19881E-01
  0.50341E-02
  0.56371E-02
 -0.32774E-01
 -0.32699E-01
  0.17039E-03
  0.27972E-02
  0.28844E-02
  0.25474E-02
  0.91452E-02
 -0.21767E-01
 -0.31570E-02
  0.10734E-02
 -0.12770E-01
 -0.12955E-01
 -0.13238E-01
 -0.26178E-01
 -0.24517E-01
 -0.27433E-01
 -0.35977E-01
 -0.23954E-01
  0.39592E-01
 -0.67795E-02
  0.72185E-03
  0.23708E-01
  0.22753E-01
 -0.11894E-01
  0.45575E-02
  0.30606E-01
  0.30649E-01
 -0.12272E-02
  0.15069E-02
  0.15984E-02
  0.43972E-02
  0.50916E-02
  0.40795E-02
  0.72995E-02
  0.79124E-02
  0.88995E-02
 -0.12787E-01
 -0.88668E-02
 -0.39771E-02
 -0.52207E-02
 -0.13464E-01
  0.19275E-01
  0.17903E-01
  0.16329E-01
  0.15156E-01
  0.19118E-01
  0.41375E-02
  0.84800E-03
  0.11847E-01
 -0.30070E-02
 -0.39826E-02
 -0.12439E-01
 -0.12541E-01
 -0.13260E-01
 -0.13547E-01
 -0.15478E-01
  0.72170E-02
  0.71836E-02
  0.70007E-02
  0.68925E-02
  0.71392E-02
  0.66767E-02
 -0.13684E-01
 -0.15166E-01
 -0.13298E-01
 -0.29919E-01
  0.12730E-01
  0.12076E-01
 -0.12159E-01
 -0.12709E-01
 -0.10881E-01
 -0.11640E-01
 -0.73166E-02
 -0.23832E-02
  0.64349E-02
 -0.91406E-02
  0.19424E-01
  0.16681E-01
  0.25195E-01
  0.22376E-01
  0.15054E-01
  0.28482E-01
 -0.48931E-03
  0.97638E-02
  0.82328E-02
 -0.14343E-01
 -0.14812E-01
 -0.84372E-02
 -0.27628E-01
 -0.23005E-01
 -0.30998E-01
 -0.25829E-01
 -0.30134E-01
  0.26496E-01
  0.11734E-01
  0.17612E-01
  0.17896E-01
  0.19414E-01
 -0.74270E-02
 -0.79324E-02
 -0.76394E-02
  0.83881E-02
  0.82658E-02
  0.88089E-02
  0.90836E-02
  0.90550E-02
 -0.51619E-02
 -0.50052E-02
 -0.53719E-02
 -0.41293E-02
 -0.48737E-02
  0.13609E-01
  0.14441E-01
 -0.12459E-01
 -0.18589E-01
  0.39814E-02
  0.97556E-03
 -0.34561E-02
 -0.68886E-03
 -0.96151E-02
  0.56234E-02
  0.13646E-02
  0.50582E-02
  0.92486E-02
  0.85602E-02
 -0.17982E-01
 -0.18737E-01
 -0.17354E-01
 -0.15698E-01
  0.10912E-01
 -0.27353E-02
 -0.89965E-04
 -0.20352E-03
  0.74599E-02
 -0.18492E-01
 -0.19165E-01
 -0.20016E-01
 -0.17109E-01
 -0.16837E-01
 -0.16167E-01
 -0.64890E-02
 -0.20406E-01
 -0.54480E-03
  0.36288E-02
  0.38107E-02
 -0.13751E-01
  0.30664E-02
  0.24321E-02
 -0.14918E-01
 -0.14427E-01
 -0.14980E-01
 -0.14147E-01
 -0.45537E-02
  0.51590E-02
 -0.12678E-01
  0.67751E-02
  0.71119E-02
  0.73741E-02
  0.74143E-02
  0.86427E-02
  0.10635E-02
  0.29756E-01
  0.38224E-02
  0.41173E-02
  0.96699E-02
 -0.97691E-02
  0.16714E-01
  0.23325E-01
  0.27453E-01
  0.68764E-02
 -0.20983E-01
 -0.21472E-01
 -0.21752E-01
  0.35068E-01
  0.52267E-02
  0.16794E-01
  0.14600E-03
  0.25618E-01
 -0.13379E-01
  0.25818E-01
  0.27017E-01
 -0.20328E-01
 -0.88175E-02
 -0.13256E-01
  0.14817E-01
 -0.19114E-01
 -0.22711E-01
 -0.22546E-01
 -0.20878E-01
 -0.12591E-01
  0.42068E-02
  0.47943E-02
  0.28964E-01
  0.24861E-01
  0.33512E-01
 -0.19269E-01
 -0.21584E-01
 -0.14698E-01
 -0.21928E-01
  0.94276E-02
 -0.30419E-02
 -0.20153E-03
 -0.14916E-01
 -0.28676E-01
 -0.34401E-01
 -0.40980E-01
 -0.34688E-01
  0.10223E-01
  0.53419E-02
 -0.73775E-03
  0.14372E-02
  0.59727E-02
  0.17527E-01
  0.19168E-01
  0.20977E-01
  0.14354E-01
 -0.11392E-01
 -0.10173E-01
 -0.21395E-01
 -0.22947E-01
 -0.19274E-01
  0.13646E-01
  0.18905E-01
  0.23617E-01
  0.34249E-01
  0.12574E-01
  0.54926E-02
 -0.28579E-02
 -0.13816E-01
 -0.13615E-01
  0.75786E-02
  0.76910E-02
  0.97437E-02
 -0.12646E-01
  0.72848E-02
 -0.98387E-02
 -0.11364E-01
  0.58722E-02
  0.56017E-02
  0.62044E-02
  0.58514E-02
  0.62335E-02
 -0.21040E-01
 -0.20991E-01
 -0.26483E-01
 -0.31851E-01
 -0.14440E-01
 -0.14365E-01
 -0.32166E-02
  0.60890E-02
 -0.97281E-02
 -0.13937E-01
  0.70969E-02
  0.38515E-01
  0.35734E-01
  0.39152E-01
  0.36465E-01
  0.38889E-01
  0.40564E-01
  0.55826E-02
  0.68384E-02
 -0.45102E-02
 -0.11647E-01
 -0.12055E-01
 -0.13432E-01
 -0.11049E-01
 -0.10507E-01
 -0.13261E-01
 -0.20891E-01
 -0.76967E-02
 -0.64760E-02
 -0.22263E-01
  0.10614E-01
 -0.22843E-01
 -0.30073E-01
 -0.38126E-01
 -0.13235E-01
  0.81503E-02
  0.41738E-01
 -0.42279E-01
 -0.13905E-01
 -0.13859E-01
 -0.14173E-01
 -0.12268E-01
 -0.12890E-01
 -0.17493E-01
 -0.33557E-01
 -0.27310E-02
 -0.84825E-02
 -0.86200E-02
 -0.20713E-01
  0.16357E-01
  0.71998E-02
 -0.10933E-01
 -0.13151E-01
 -0.97522E-02
 -0.10981E-01
 -0.84494E-02
 -0.89193E-02
 -0.23412E-01
 -0.23273E-01
 -0.22560E-01
 -0.50899E-02
 -0.50672E-02
 -0.21642E-01
 -0.14560E-02
  0.66388E-03
 -0.43612E-03
 -0.22515E-01
 -0.23008E-01
 -0.12367E-02
 -0.79360E-02
  0.29261E-01
  0.28854E-01
 -0.26975E-01
  0.25316E-01
  0.25014E-01
  0.26957E-01
 -0.17600E-01
 -0.16852E-01
 -0.14922E-01
  0.89860E-02
 -0.48350E-02
 -0.13189E-01
 -0.15658E-01
  0.59569E-02
  0.62495E-02
  0.57152E-02
  0.65670E-02
 -0.12439E-01
 -0.14836E-03
 -0.12669E-01
 -0.13136E-01
  0.32893E-01
 -0.14688E-01
  0.45417E-02
  0.32436E-01
  0.22562E-02
 -0.12267E-01
 -0.30051E-01
 -0.28676E-02
 -0.11904E-01
 -0.21774E-01
 -0.20425E-01
 -0.29252E-01
 -0.35695E-02
 -0.33772E-01
 -0.26822E-01
 -0.34001E-01
 -0.13780E-01
 -0.20157E-01
  0.55579E-02
 -0.79475E-03
 -0.14531E-01
 -0.14392E-01
 -0.19234E-01
 -0.15142E-01
 -0.15010E-01
 -0.15924E-01
  0.13226E-03
 -0.81082E-03
 -0.20826E-01
  0.33598E-03
 -0.13778E-02
 -0.25516E-02
 -0.11196E-04
  0.29022E-02
  0.10696E-02
 -0.75239E-03
  0.45034E-02
  0.43978E-02
  0.63846E-02
  0.48964E-02
  0.27528E-02
  0.42272E-01
  0.41582E-01
  0.21771E-01
  0.24463E-01
  0.13797E-02
  0.77678E-03
 -0.42428E-03
 -0.11516E-03
 -0.14747E-02
 -0.20291E-02
 -0.32885E-02
 -0.40218E-02
 -0.57680E-02
 -0.51339E-02
 -0.67328E-02
 -0.81955E-02
 -0.70067E-02
  0.89276E-03
 -0.27403E-02
  0.26337E-02
  0.57727E-02
  0.80030E-02
  0.11023E-01
  0.12255E-01
  0.14095E-01
  0.14687E-01
  0.16599E-01
 -0.13398E-01
 -0.13698E-01
  0.24714E-01
 -0.15397E-01
 -0.13181E-01
 -0.76214E-03
  0.54732E-02
 -0.14317E-01
  0.14874E-01
 -0.13078E-01
 -0.10083E-01
  0.26466E-01
  0.27403E-01
  0.28425E-01
  0.56247E-02
 -0.13618E-01
  0.18875E-01
 -0.12408E-01
  0.60077E-02
  0.63163E-02
  0.64635E-02
  0.63776E-02
 -0.22725E-01
 -0.29381E-02
  0.20077E-01
  0.22124E-01
  0.22376E-01
  0.26151E-02
  0.21597E-02
  0.15579E-02
  0.15599E-02
 -0.15694E-02
 -0.41311E-01
  0.92342E-02
  0.67506E-02
 -0.43250E-01
 -0.66747E-03
 -0.37152E-02
 -0.55783E-02
 -0.77216E-02
 -0.96511E-02
  0.54940E-02
  0.54170E-02
  0.14249E-01
 -0.21732E-01
 -0.13237E-01
  0.48492E-02
  0.62246E-02
 -0.14512E-01
  0.79569E-02
  0.76465E-02