# vtk DataFile Version 2.0
Unstructured Grid UFVM-ECOMOD
ASCII
DATASET UNSTRUCTURED_GRID
 POINTS         1724  float
  0.00000E+00  0.00000E+00  0.00000E+00
  0.40000E+01  0.00000E+00  0.00000E+00
  0.40000E+01  0.20000E+01  0.00000E+00
  0.00000E+00  0.20000E+01  0.00000E+00
  0.15750E+01  0.10287E+01  0.00000E+00
  0.15677E+01  0.97091E+00  0.00000E+00
  0.15461E+01  0.91674E+00  0.00000E+00
  0.15118E+01  0.86961E+00  0.00000E+00
  0.14667E+01  0.83248E+00  0.00000E+00
  0.14138E+01  0.80767E+00  0.00000E+00
  0.13563E+01  0.79675E+00  0.00000E+00
  0.12979E+01  0.80041E+00  0.00000E+00
  0.12423E+01  0.81842E+00  0.00000E+00
  0.11929E+01  0.84963E+00  0.00000E+00
  0.11529E+01  0.89210E+00  0.00000E+00
  0.11247E+01  0.94315E+00  0.00000E+00
  0.11102E+01  0.99958E+00  0.00000E+00
  0.11102E+01  0.10578E+01  0.00000E+00
  0.11247E+01  0.11143E+01  0.00000E+00
  0.11529E+01  0.11653E+01  0.00000E+00
  0.11929E+01  0.12078E+01  0.00000E+00
  0.12423E+01  0.12390E+01  0.00000E+00
  0.12979E+01  0.12570E+01  0.00000E+00
  0.13563E+01  0.12607E+01  0.00000E+00
  0.14138E+01  0.12497E+01  0.00000E+00
  0.14667E+01  0.12249E+01  0.00000E+00
  0.15118E+01  0.11878E+01  0.00000E+00
  0.15461E+01  0.11407E+01  0.00000E+00
  0.15677E+01  0.10865E+01  0.00000E+00
  0.10000E+00  0.00000E+00  0.00000E+00
  0.20000E+00  0.00000E+00  0.00000E+00
  0.30000E+00  0.00000E+00  0.00000E+00
  0.40000E+00  0.00000E+00  0.00000E+00
  0.50000E+00  0.00000E+00  0.00000E+00
  0.60000E+00  0.00000E+00  0.00000E+00
  0.70000E+00  0.00000E+00  0.00000E+00
  0.80000E+00  0.00000E+00  0.00000E+00
  0.90000E+00  0.00000E+00  0.00000E+00
  0.10000E+01  0.00000E+00  0.00000E+00
  0.11000E+01  0.00000E+00  0.00000E+00
  0.12000E+01  0.00000E+00  0.00000E+00
  0.13000E+01  0.00000E+00  0.00000E+00
  0.14000E+01  0.00000E+00  0.00000E+00
  0.15000E+01  0.00000E+00  0.00000E+00
  0.16000E+01  0.00000E+00  0.00000E+00
  0.17000E+01  0.00000E+00  0.00000E+00
  0.18000E+01  0.00000E+00  0.00000E+00
  0.19000E+01  0.00000E+00  0.00000E+00
  0.20000E+01  0.00000E+00  0.00000E+00
  0.21000E+01  0.00000E+00  0.00000E+00
  0.22000E+01  0.00000E+00  0.00000E+00
  0.23000E+01  0.00000E+00  0.00000E+00
  0.24000E+01  0.00000E+00  0.00000E+00
  0.25000E+01  0.00000E+00  0.00000E+00
  0.26000E+01  0.00000E+00  0.00000E+00
  0.27000E+01  0.00000E+00  0.00000E+00
  0.28000E+01  0.00000E+00  0.00000E+00
  0.29000E+01  0.00000E+00  0.00000E+00
  0.30000E+01  0.00000E+00  0.00000E+00
  0.31000E+01  0.00000E+00  0.00000E+00
  0.32000E+01  0.00000E+00  0.00000E+00
  0.33000E+01  0.00000E+00  0.00000E+00
  0.34000E+01  0.00000E+00  0.00000E+00
  0.35000E+01  0.00000E+00  0.00000E+00
  0.36000E+01  0.00000E+00  0.00000E+00
  0.37000E+01  0.00000E+00  0.00000E+00
  0.38000E+01  0.00000E+00  0.00000E+00
  0.39000E+01  0.00000E+00  0.00000E+00
  0.40000E+01  0.10000E+00  0.00000E+00
  0.40000E+01  0.20000E+00  0.00000E+00
  0.40000E+01  0.30000E+00  0.00000E+00
  0.40000E+01  0.40000E+00  0.00000E+00
  0.40000E+01  0.50000E+00  0.00000E+00
  0.40000E+01  0.60000E+00  0.00000E+00
  0.40000E+01  0.70000E+00  0.00000E+00
  0.40000E+01  0.80000E+00  0.00000E+00
  0.40000E+01  0.90000E+00  0.00000E+00
  0.40000E+01  0.10000E+01  0.00000E+00
  0.40000E+01  0.11000E+01  0.00000E+00
  0.40000E+01  0.12000E+01  0.00000E+00
  0.40000E+01  0.13000E+01  0.00000E+00
  0.40000E+01  0.14000E+01  0.00000E+00
  0.40000E+01  0.15000E+01  0.00000E+00
  0.40000E+01  0.16000E+01  0.00000E+00
  0.40000E+01  0.17000E+01  0.00000E+00
  0.40000E+01  0.18000E+01  0.00000E+00
  0.40000E+01  0.19000E+01  0.00000E+00
  0.39000E+01  0.20000E+01  0.00000E+00
  0.38000E+01  0.20000E+01  0.00000E+00
  0.37000E+01  0.20000E+01  0.00000E+00
  0.36000E+01  0.20000E+01  0.00000E+00
  0.35000E+01  0.20000E+01  0.00000E+00
  0.34000E+01  0.20000E+01  0.00000E+00
  0.33000E+01  0.20000E+01  0.00000E+00
  0.32000E+01  0.20000E+01  0.00000E+00
  0.31000E+01  0.20000E+01  0.00000E+00
  0.30000E+01  0.20000E+01  0.00000E+00
  0.29000E+01  0.20000E+01  0.00000E+00
  0.28000E+01  0.20000E+01  0.00000E+00
  0.27000E+01  0.20000E+01  0.00000E+00
  0.26000E+01  0.20000E+01  0.00000E+00
  0.25000E+01  0.20000E+01  0.00000E+00
  0.24000E+01  0.20000E+01  0.00000E+00
  0.23000E+01  0.20000E+01  0.00000E+00
  0.22000E+01  0.20000E+01  0.00000E+00
  0.21000E+01  0.20000E+01  0.00000E+00
  0.20000E+01  0.20000E+01  0.00000E+00
  0.19000E+01  0.20000E+01  0.00000E+00
  0.18000E+01  0.20000E+01  0.00000E+00
  0.17000E+01  0.20000E+01  0.00000E+00
  0.16000E+01  0.20000E+01  0.00000E+00
  0.15000E+01  0.20000E+01  0.00000E+00
  0.14000E+01  0.20000E+01  0.00000E+00
  0.13000E+01  0.20000E+01  0.00000E+00
  0.12000E+01  0.20000E+01  0.00000E+00
  0.11000E+01  0.20000E+01  0.00000E+00
  0.10000E+01  0.20000E+01  0.00000E+00
  0.90000E+00  0.20000E+01  0.00000E+00
  0.80000E+00  0.20000E+01  0.00000E+00
  0.70000E+00  0.20000E+01  0.00000E+00
  0.60000E+00  0.20000E+01  0.00000E+00
  0.50000E+00  0.20000E+01  0.00000E+00
  0.40000E+00  0.20000E+01  0.00000E+00
  0.30000E+00  0.20000E+01  0.00000E+00
  0.20000E+00  0.20000E+01  0.00000E+00
  0.10000E+00  0.20000E+01  0.00000E+00
  0.00000E+00  0.19000E+01  0.00000E+00
  0.00000E+00  0.18000E+01  0.00000E+00
  0.00000E+00  0.17000E+01  0.00000E+00
  0.00000E+00  0.16000E+01  0.00000E+00
  0.00000E+00  0.15000E+01  0.00000E+00
  0.00000E+00  0.14000E+01  0.00000E+00
  0.00000E+00  0.13000E+01  0.00000E+00
  0.00000E+00  0.12000E+01  0.00000E+00
  0.00000E+00  0.11000E+01  0.00000E+00
  0.00000E+00  0.10000E+01  0.00000E+00
  0.00000E+00  0.90000E+00  0.00000E+00
  0.00000E+00  0.80000E+00  0.00000E+00
  0.00000E+00  0.70000E+00  0.00000E+00
  0.00000E+00  0.60000E+00  0.00000E+00
  0.00000E+00  0.50000E+00  0.00000E+00
  0.00000E+00  0.40000E+00  0.00000E+00
  0.00000E+00  0.30000E+00  0.00000E+00
  0.00000E+00  0.20000E+00  0.00000E+00
  0.00000E+00  0.10000E+00  0.00000E+00
  0.15713E+01  0.99981E+00  0.00000E+00
  0.15569E+01  0.94382E+00  0.00000E+00
  0.15290E+01  0.89318E+00  0.00000E+00
  0.14892E+01  0.85104E+00  0.00000E+00
  0.14402E+01  0.82007E+00  0.00000E+00
  0.13850E+01  0.80221E+00  0.00000E+00
  0.13271E+01  0.79858E+00  0.00000E+00
  0.12701E+01  0.80941E+00  0.00000E+00
  0.12176E+01  0.83402E+00  0.00000E+00
  0.11729E+01  0.87086E+00  0.00000E+00
  0.11388E+01  0.91762E+00  0.00000E+00
  0.11175E+01  0.97136E+00  0.00000E+00
  0.11102E+01  0.10287E+01  0.00000E+00
  0.11175E+01  0.10860E+01  0.00000E+00
  0.11388E+01  0.11398E+01  0.00000E+00
  0.11729E+01  0.11865E+01  0.00000E+00
  0.12176E+01  0.12234E+01  0.00000E+00
  0.12701E+01  0.12480E+01  0.00000E+00
  0.13271E+01  0.12588E+01  0.00000E+00
  0.13850E+01  0.12552E+01  0.00000E+00
  0.14402E+01  0.12373E+01  0.00000E+00
  0.14892E+01  0.12064E+01  0.00000E+00
  0.15290E+01  0.11642E+01  0.00000E+00
  0.15569E+01  0.11136E+01  0.00000E+00
  0.15713E+01  0.10576E+01  0.00000E+00
  0.15994E+01  0.10133E+01  0.00000E+00
  0.15863E+01  0.11089E+01  0.00000E+00
  0.25478E+01  0.10053E+00  0.00000E+00
  0.25434E+01  0.19142E+01  0.00000E+00
  0.11238E+01  0.89266E+00  0.00000E+00
  0.11061E+01  0.11423E+01  0.00000E+00
  0.15575E+01  0.89126E+00  0.00000E+00
  0.10894E+01  0.97917E+00  0.00000E+00
  0.15393E+01  0.11910E+01  0.00000E+00
  0.11627E+01  0.12175E+01  0.00000E+00
  0.14962E+01  0.82262E+00  0.00000E+00
  0.29512E+01  0.95010E-01  0.00000E+00
  0.29494E+01  0.19117E+01  0.00000E+00
  0.39186E+01  0.10466E+01  0.00000E+00
  0.11913E+01  0.82197E+00  0.00000E+00
  0.12788E+01  0.78594E+00  0.00000E+00
  0.21500E+01  0.86600E-01  0.00000E+00
  0.21472E+01  0.19005E+01  0.00000E+00
  0.14041E+01  0.78007E+00  0.00000E+00
  0.14641E+01  0.12550E+01  0.00000E+00
  0.13764E+01  0.12826E+01  0.00000E+00
  0.99450E-01  0.63780E+00  0.00000E+00
  0.92450E-01  0.13422E+01  0.00000E+00
  0.12473E+01  0.12677E+01  0.00000E+00
  0.65677E+00  0.19154E+01  0.00000E+00
  0.86110E-01  0.10467E+01  0.00000E+00
  0.75000E+00  0.86600E-01  0.00000E+00
  0.33379E+01  0.88030E-01  0.00000E+00
  0.33490E+01  0.19201E+01  0.00000E+00
  0.18500E+01  0.86600E-01  0.00000E+00
  0.18441E+01  0.19006E+01  0.00000E+00
  0.38922E+01  0.64055E+00  0.00000E+00
  0.39154E+01  0.13500E+01  0.00000E+00
  0.10564E+01  0.85180E-01  0.00000E+00
  0.94817E+00  0.19249E+01  0.00000E+00
  0.15421E+01  0.85450E-01  0.00000E+00
  0.15479E+01  0.19161E+01  0.00000E+00
  0.12386E+01  0.19130E+01  0.00000E+00
  0.45294E+00  0.85030E-01  0.00000E+00
  0.86890E-01  0.16531E+01  0.00000E+00
  0.36495E+01  0.78620E-01  0.00000E+00
  0.36510E+01  0.19107E+01  0.00000E+00
  0.10846E+01  0.10423E+01  0.00000E+00
  0.15860E+01  0.94842E+00  0.00000E+00
  0.13392E+01  0.77093E+00  0.00000E+00
  0.13108E+01  0.12864E+01  0.00000E+00
  0.87300E-01  0.35008E+00  0.00000E+00
  0.34468E+00  0.19176E+01  0.00000E+00
  0.39135E+01  0.16499E+01  0.00000E+00
  0.39252E+01  0.34254E+00  0.00000E+00
  0.13680E+01  0.88360E-01  0.00000E+00
  0.88350E-01  0.84594E+00  0.00000E+00
  0.23513E+01  0.77830E-01  0.00000E+00
  0.23488E+01  0.19154E+01  0.00000E+00
  0.27481E+01  0.80910E-01  0.00000E+00
  0.31480E+01  0.84140E-01  0.00000E+00
  0.31513E+01  0.19149E+01  0.00000E+00
  0.27502E+01  0.19198E+01  0.00000E+00
  0.39134E+01  0.85000E+00  0.00000E+00
  0.25071E+00  0.86200E-01  0.00000E+00
  0.91130E-01  0.18412E+01  0.00000E+00
  0.38461E+01  0.84360E-01  0.00000E+00
  0.38408E+01  0.19092E+01  0.00000E+00
  0.97440E-01  0.15849E+00  0.00000E+00
  0.15988E+01  0.10458E+01  0.00000E+00
  0.16261E+01  0.10305E+01  0.00000E+00
  0.16281E+01  0.99836E+00  0.00000E+00
  0.16554E+01  0.10148E+01  0.00000E+00
  0.16578E+01  0.98164E+00  0.00000E+00
  0.16863E+01  0.99914E+00  0.00000E+00
  0.16884E+01  0.96239E+00  0.00000E+00
  0.17222E+01  0.98417E+00  0.00000E+00
  0.17231E+01  0.93952E+00  0.00000E+00
  0.17605E+01  0.96435E+00  0.00000E+00
  0.17576E+01  0.10098E+01  0.00000E+00
  0.17991E+01  0.98970E+00  0.00000E+00
  0.17625E+01  0.91931E+00  0.00000E+00
[...]
 POINT_DATA         1724
  
 SCALARS WL      float 1
 LOOKUP_TABLE default
  0.22275E-01
  0.85576E-03
  0.22792E-02
  0.32092E-01
 -0.35845E-01
 -0.28315E-01
 -0.18058E-01
 -0.65839E-02
  0.17459E-03
  0.25223E-03
  0.20497E-02
 -0.73466E-02
 -0.40661E-02
  0.61045E-02
  0.23572E-01
  0.35844E-01
  0.43126E-01
  0.43600E-01
  0.37380E-01
  0.25885E-01
  0.80269E-02
 -0.12858E-01
 -0.34960E-01
 -0.55372E-01
 -0.61004E-01
 -0.54573E-01
 -0.50629E-01
 -0.46194E-01
 -0.40225E-01
  0.21980E-01
  0.21518E-01
  0.20942E-01
  0.20222E-01
  0.19273E-01
  0.18040E-01
  0.16503E-01
  0.14663E-01
  0.12354E-01
  0.96049E-02
  0.70095E-02
  0.43111E-02
  0.18391E-02
  0.45251E-03
 -0.97627E-04
  0.13129E-03
  0.84206E-03
  0.16480E-02
  0.26190E-02
  0.36775E-02
  0.47563E-02
  0.56296E-02
  0.63690E-02
  0.63139E-02
  0.57844E-02
  0.47299E-02
  0.36132E-02
  0.25631E-02
  0.15700E-02
  0.10286E-02
  0.77784E-03
  0.79913E-03
  0.12767E-02
  0.18376E-02
  0.25302E-02
  0.28148E-02
  0.25825E-02
  0.22786E-02
  0.16132E-02
  0.00000E+00
  0.00000E+00
  0.00000E+00
  0.00000E+00
  0.00000E+00
  0.00000E+00
  0.00000E+00
  0.00000E+00
  0.00000E+00
  0.00000E+00
  0.00000E+00
  0.00000E+00
  0.00000E+00
  0.00000E+00
  0.00000E+00
  0.00000E+00
  0.00000E+00
  0.00000E+00
  0.00000E+00
  0.39186E-02
  0.69039E-02
  0.10232E-01
  0.13025E-01
  0.15240E-01
  0.16819E-01
  0.16967E-01
  0.15998E-01
  0.14214E-01
  0.12404E-01
  0.11564E-01
  0.12278E-01
  0.14057E-01
  0.16434E-01
  0.18429E-01
  0.19674E-01
  0.20126E-01
  0.19981E-01
  0.19383E-01
  0.18348E-01
  0.16998E-01
  0.15418E-01
  0.13850E-01
  0.12745E-01
  0.12504E-01
  0.13296E-01
  0.15109E-01
  0.17611E-01
  0.20426E-01
  0.23286E-01
  0.26010E-01
  0.28393E-01
  0.30436E-01
  0.32109E-01
  0.33420E-01
  0.34190E-01
  0.34336E-01
  0.33871E-01
  0.32944E-01
  0.31821E-01
  0.31322E-01
  0.30719E-01
  0.29955E-01
  0.29330E-01
  0.28533E-01
  0.27871E-01
  0.27246E-01
  0.26680E-01
  0.26136E-01
  0.25597E-01
  0.25070E-01
  0.24511E-01
  0.24008E-01
  0.23539E-01
  0.23127E-01
  0.22789E-01
  0.22535E-01
  0.22367E-01
 -0.32767E-01
 -0.23369E-01
 -0.11848E-01
 -0.18082E-02
 -0.15093E-03
  0.21618E-02
 -0.25515E-02
 -0.91713E-02
 -0.11876E-02
  0.15426E-01
  0.30476E-01
  0.40796E-01
  0.44118E-01
  0.41744E-01
  0.32618E-01
  0.17270E-01
 -0.14452E-02
 -0.23255E-01
 -0.46527E-01
 -0.59638E-01
 -0.58862E-01
 -0.52046E-01
 -0.49216E-01
 -0.42754E-01
 -0.38147E-01
 -0.33822E-01
 -0.41156E-01
  0.54303E-02
  0.17584E-01
  0.28541E-01
  0.35064E-01
 -0.14280E-01
  0.41815E-01
 -0.50124E-01
  0.15904E-01
 -0.13867E-02
  0.19181E-02
  0.11782E-01
 -0.62332E-02
  0.46827E-02
 -0.73003E-02
  0.50026E-02
  0.19731E-01
  0.12185E-02
 -0.54550E-01
 -0.53126E-01
  0.24034E-01
  0.28352E-01
 -0.13640E-01
  0.31263E-01
  0.26377E-01
  0.15696E-01
  0.21536E-02
  0.16906E-01
  0.21410E-02
  0.15768E-01
 -0.62629E-02
  0.24577E-02
  0.83179E-02
  0.24715E-01
  0.26911E-03
  0.12164E-01
  0.16426E-01
  0.19817E-01
  0.30885E-01
  0.29911E-02
  0.11762E-01
  0.43721E-01
 -0.24938E-01
  0.44739E-03
 -0.35368E-01
  0.22735E-01
  0.34247E-01
  0.48325E-02
  0.14072E-02
  0.11751E-02
  0.25237E-01
  0.63526E-02
  0.20038E-01
  0.33310E-02
  0.13744E-02
  0.15258E-01
  0.12739E-01
 -0.10067E-01
  0.21303E-01
  0.32309E-01
  0.21800E-02
  0.57263E-02
  0.22161E-01
 -0.36696E-01
 -0.35446E-01
 -0.32898E-01
 -0.35092E-01
 -0.32253E-01
 -0.34580E-01
 -0.30863E-01
 -0.33071E-01
 -0.27874E-01
 -0.29804E-01
 -0.33478E-01
 -0.29611E-01
 -0.23830E-01
 -0.30848E-01
 -0.26815E-01
 -0.25004E-01
 -0.21963E-01
 -0.17737E-01
 -0.16249E-01
 -0.21271E-01
 -0.17069E-01
 -0.23186E-01
 -0.20417E-01
 -0.27104E-01
 -0.24522E-01
 -0.30135E-01
 -0.25175E-01
 -0.10572E-01
 -0.27467E-01
 -0.20048E-01
 -0.17286E-01
 -0.11520E-01
 -0.30587E-01
 -0.83440E-02
 -0.43426E-02
 -0.47037E-02
 -0.48393E-03
  0.54522E-03
  0.23333E-02
  0.13626E-02
  0.21059E-02
  0.44593E-02
  0.25726E-02
 -0.86342E-03
 -0.23130E-02
  0.33208E-02
 -0.18334E-02
 -0.90736E-02
 -0.73105E-02
  0.73398E-03
 -0.29935E-02
  0.41516E-02
  0.14868E-02
 -0.46695E-02
 -0.36725E-04
  0.39920E-02
 -0.36866E-02
  0.46878E-04
 -0.70375E-03
 -0.21021E-01
  0.13219E-02
  0.28946E-02
  0.27528E-03
 -0.24148E-01
 -0.25735E-01
 -0.16850E-01
 -0.17249E-01
 -0.92048E-02
 -0.90199E-02
  0.31949E-02
  0.92587E-03
  0.61293E-02
 -0.37504E-02
 -0.14092E-01
 -0.70884E-02
 -0.91955E-02
 -0.43969E-02
 -0.43402E-02
  0.51738E-02
  0.84888E-02
 -0.16566E-02
 -0.22659E-03
 -0.19803E-01
  0.30902E-03
  0.19969E-02
  0.15383E-02
  0.28872E-02
  0.38425E-02
  0.42034E-02
  0.54942E-02
  0.51440E-02
  0.44490E-02
  0.50850E-02
 -0.25853E-02
  0.20726E-03
  0.18444E-02
  0.32009E-02
  0.48152E-02
 -0.17388E-02
 -0.15318E-01
  0.46799E-02
  0.52310E-02
 -0.98708E-02
  0.54385E-02
  0.68016E-02
  0.10099E-01
  0.11294E-01
  0.12457E-01
  0.47375E-02
  0.54457E-02
  0.56409E-02
  0.60951E-02
  0.52095E-02
  0.67085E-02
  0.18505E-02
  0.60883E-02
  0.67080E-02
  0.63640E-02
  0.71293E-02
  0.65050E-02
  0.75719E-02
  0.79644E-02
  0.88861E-02
  0.92276E-02
  0.10555E-01
  0.11117E-01
  0.12779E-01
  0.11767E-01
  0.14031E-01
  0.15320E-01
  0.16408E-01
  0.18054E-01
  0.18701E-01
  0.20610E-01
  0.20751E-01
  0.22774E-01
  0.22426E-01
  0.24499E-01
  0.23806E-01
  0.25763E-01
  0.24846E-01
  0.26554E-01
  0.23258E-01
  0.25560E-01
  0.27031E-01
  0.26009E-01
  0.27291E-01
  0.28474E-01
  0.28468E-01
  0.29744E-01
  0.29499E-01
  0.30793E-01
  0.30320E-01
  0.31522E-01
  0.30916E-01
  0.31952E-01
  0.31289E-01
  0.32069E-01
  0.31450E-01
  0.31901E-01
  0.31443E-01
  0.31513E-01
  0.30796E-01
  0.29144E-01
  0.31302E-01
  0.30969E-01
  0.19073E-01
  0.26376E-01
  0.25162E-01
  0.31058E-01
  0.31280E-01
  0.30375E-01
  0.30057E-01
  0.29163E-01
  0.28511E-01
  0.27448E-01
  0.26308E-01
  0.25224E-01
  0.23425E-01
  0.25562E-01
  0.24483E-01
  0.12847E-01
  0.31380E-01
  0.31261E-01
  0.31387E-01
  0.29828E-01
  0.26796E-01
  0.32935E-01
  0.22586E-01
  0.20015E-01
  0.28366E-01
  0.31585E-01
  0.31603E-01
  0.24891E-01
  0.24016E-01
  0.69709E-02
  0.19609E-01
  0.16475E-01
  0.24505E-01
  0.22734E-01
  0.25846E-01
  0.31103E-01
  0.31246E-01
  0.30534E-01
 -0.37053E-01
  0.23451E-01
  0.23179E-01
  0.22445E-01
  0.22368E-01
  0.21508E-01
  0.40749E-02
  0.31984E-01
  0.21608E-01
  0.13400E-01
 -0.52058E-02
 -0.10931E-01
  0.16821E-01
  0.16276E-01
  0.12166E-01
  0.13038E-01
  0.82635E-02
  0.99059E-02
  0.51442E-02
  0.74683E-02
  0.31398E-02
 -0.28839E-03
 -0.28080E-02
  0.22552E-02
 -0.19499E-02
 -0.81175E-02
 -0.61352E-02
 -0.29644E-03
 -0.32451E-02
  0.19750E-02
  0.51482E-03
 -0.54727E-02
 -0.53190E-03
 -0.68531E-02
 -0.13571E-02
  0.39140E-02
  0.38003E-02
  0.79901E-02
  0.85749E-02
  0.11581E-01
  0.12423E-01
  0.14673E-01
  0.15834E-01
  0.13409E-01
  0.16832E-01
  0.18333E-01
  0.18982E-01
  0.19825E-01
  0.19942E-01
  0.17072E-01
  0.43962E-02
  0.78410E-02
  0.65201E-02
  0.80803E-02
  0.20623E-01
  0.20242E-01
  0.24447E-01
  0.10820E-01
  0.20699E-01
  0.20473E-01
  0.12780E-01
  0.18934E-01
  0.17979E-01
  0.19049E-01
  0.15550E-01
  0.16877E-01
  0.11851E-01
 -0.13280E-01
 -0.14513E-01
  0.13532E-01
  0.72773E-02
  0.24440E-02
  0.38128E-02
 -0.20992E-02
  0.31648E-01
  0.73183E-02
  0.47878E-02
 -0.11008E-01
 -0.11581E-02
  0.95192E-02
  0.11658E-01
  0.12748E-01
  0.13635E-01
  0.13929E-01
  0.13688E-01
  0.13401E-01
  0.13418E-01
  0.12582E-01
  0.12332E-01
  0.12227E-01
  0.11321E-01
  0.10900E-01
  0.10701E-01
  0.88976E-02
  0.75338E-02
  0.48543E-02
  0.68446E-02
  0.20209E-02
 -0.13652E-02
  0.50198E-02
 -0.14658E-04
  0.48085E-02
 -0.12293E-02
  0.29926E-02
  0.14645E-03
  0.13939E-01
 -0.52715E-02
  0.10265E-02
  0.22365E-01
  0.21739E-01
 -0.16134E-01
  0.49895E-02
  0.13653E-01
  0.86087E-02
  0.22034E-01
  0.73141E-02
  0.38431E-02
 -0.12725E-01
 -0.16364E-01
  0.62633E-03
  0.15558E-02
  0.98843E-02
  0.61092E-02
  0.32237E-01
  0.32419E-01
  0.11508E-01
  0.10977E-01
  0.30642E-02
  0.53632E-02
 -0.37491E-03
 -0.77836E-02
 -0.22112E-01
 -0.23248E-01
 -0.89643E-02
  0.30627E-01
  0.29809E-01
 -0.18280E-02
 -0.15529E-01
 -0.52684E-03
 -0.67555E-02
 -0.45305E-02
  0.27902E-02
 -0.25806E-01
 -0.25563E-01
  0.41862E-02
  0.55864E-02
  0.58184E-02
  0.97233E-03
  0.73391E-02
  0.19639E-01
  0.19181E-01
  0.12512E-01
  0.11018E-02
  0.19215E-01
  0.10519E-01
 -0.43881E-02
  0.43305E-02
 -0.26594E-04
  0.66998E-02
 -0.15206E-01
 -0.11076E-01
  0.34252E-02
  0.19291E-01
 -0.80738E-02
 -0.14663E-01
  0.14144E-01
  0.22406E-01
  0.63748E-02
 -0.25807E-01
  0.65060E-02
  0.21899E-01
  0.38537E-02
  0.29790E-01
  0.29007E-01
  0.29034E-01
  0.28238E-01
  0.28215E-01
  0.28281E-01
  0.27506E-01
  0.16406E-02
  0.31583E-01
  0.27366E-02
  0.64919E-02
  0.12523E-01
  0.10568E-01
  0.88408E-02
  0.41468E-02
  0.11570E-01
 -0.13144E-01
  0.32833E-01
  0.32822E-01
  0.20002E-01
  0.18145E-01
  0.17659E-01
  0.22994E-01
 -0.31658E-01
 -0.29703E-01
  0.88575E-02
 -0.14726E-01
 -0.20884E-01
  0.26231E-02
  0.42639E-02
  0.88118E-03
  0.24661E-02
  0.90047E-05
  0.34593E-03
  0.24169E-02
  0.16421E-02
  0.18830E-01
  0.17119E-01
  0.15998E-01
  0.15196E-01
  0.14121E-01
  0.13118E-01
  0.33031E-02
 -0.25539E-01
  0.11105E-01
  0.29854E-01
  0.30737E-01
  0.10699E-01
 -0.15633E-01
  0.58849E-02
  0.13385E-01
  0.79478E-02
  0.10914E-01
  0.44499E-02
  0.48809E-02
  0.65911E-02
 -0.50992E-02
  0.98320E-02
 -0.10848E-02
 -0.28314E-01
 -0.89404E-02
  0.56068E-02
  0.27531E-01
  0.26785E-01
  0.26856E-01
  0.26199E-01
 -0.70223E-02
  0.47825E-02
 -0.39074E-01
 -0.36362E-01
 -0.26718E-01
 -0.32012E-01
  0.22969E-01
  0.23573E-01
  0.83431E-02
 -0.19993E-01
 -0.23140E-01
  0.94009E-02
  0.54951E-02
  0.69530E-02
  0.15864E-02
  0.12689E-02
  0.20650E-02
  0.20862E-02
 -0.40842E-01
  0.31983E-01
  0.30819E-01
  0.30473E-01
  0.65572E-02
  0.58330E-02
  0.22662E-01
  0.10020E-01
  0.72885E-02
  0.77761E-02
  0.14462E-02
 -0.15186E-02
  0.21802E-02
  0.18661E-02
  0.12088E-01
  0.13345E-01
 -0.24062E-01
 -0.33912E-01
 -0.34716E-01
 -0.27263E-01
 -0.17137E-01
 -0.10558E-01
  0.10510E-01
  0.86844E-02
  0.10203E-01
 -0.77375E-03
  0.78462E-02
  0.19263E-02
  0.29911E-01
  0.30849E-01
  0.40136E-02
  0.37506E-02
  0.38609E-02
  0.43185E-02
  0.80669E-02
  0.33341E-01
  0.33111E-01
  0.33064E-01
  0.14722E-01
  0.14616E-01
  0.15609E-01
  0.29146E-01
 -0.14438E-01
 -0.14030E-01
 -0.18665E-01
  0.28889E-01
  0.29506E-01
  0.28976E-01
  0.27738E-01
  0.14812E-02
 -0.24751E-02
 -0.17374E-02
  0.10627E-01
  0.95300E-02
  0.44725E-02
  0.99562E-02
  0.49660E-02
 -0.32297E-01
 -0.39981E-01
 -0.38294E-01
  0.26050E-01
  0.25519E-01
  0.25773E-01
  0.25144E-01
  0.15402E-01
  0.21193E-01
  0.21471E-01
  0.30506E-02
  0.27101E-01
  0.25719E-01
  0.28561E-01
 -0.78791E-02
 -0.74924E-02
  0.29840E-02
  0.32552E-02
  0.21396E-02
  0.35391E-02
  0.16588E-01
  0.19295E-01
  0.21598E-01
  0.19065E-01
  0.21341E-01
 -0.30203E-02
  0.31418E-01
  0.18936E-01
  0.16573E-01
 -0.41750E-01
 -0.44031E-01
  0.26970E-02
  0.39280E-02
  0.29940E-01
  0.83360E-02
  0.11735E-01
 -0.22009E-01
 -0.25423E-01
 -0.38287E-01
 -0.27633E-01
 -0.17838E-01
 -0.17924E-01
 -0.14379E-01
 -0.79594E-02
  0.12290E-01
  0.10239E-01
  0.97864E-02
  0.78396E-02
  0.70382E-02
  0.56359E-02
  0.64470E-02
  0.23601E-02
  0.39514E-02
  0.48352E-02
  0.51709E-02
  0.24840E-01
  0.24506E-01
  0.24513E-02
  0.18375E-02
  0.25382E-02
 -0.56053E-02
  0.21369E-01
  0.12458E-02
 -0.33862E-02
  0.20755E-01
  0.11020E-01
  0.95242E-02
  0.13016E-01
  0.15352E-02
 -0.18276E-01
 -0.53807E-02
 -0.60079E-03
 -0.40131E-01
 -0.27319E-01
 -0.16029E-01
 -0.89621E-02
 -0.59954E-02
 -0.13949E-01
 -0.15463E-02
 -0.56319E-02
  0.39343E-02
  0.17113E-02
  0.98858E-02
  0.91807E-02
  0.16051E-01
  0.15421E-01
  0.20337E-01
  0.21841E-01
  0.24558E-01
  0.26548E-01
  0.27922E-01
  0.30102E-01
  0.29274E-01
  0.32743E-01
  0.32317E-01
  0.34527E-01
  0.33513E-01
  0.35092E-01
  0.36534E-01
  0.36468E-01
  0.38288E-01
  0.37375E-01
  0.39331E-01
  0.37707E-01
  0.36033E-01
  0.35839E-01
  0.37426E-01
  0.35028E-01
  0.35802E-01
  0.33706E-01
  0.33938E-01
  0.35997E-01
  0.33526E-01
  0.31634E-01
  0.30585E-01
  0.35559E-01
  0.34504E-01
  0.29110E-01
  0.27463E-01
  0.28558E-01
  0.24813E-01
  0.24184E-01
  0.21201E-01
  0.38330E-01
  0.31921E-01
  0.33858E-01
  0.18822E-01
  0.16580E-01
  0.18778E-01
  0.14947E-01
  0.11700E-01
  0.11283E-01
  0.75135E-02
  0.83662E-02
  0.49852E-02
  0.66672E-02
  0.43968E-02
  0.61544E-02
  0.19231E-01
  0.32549E-01
  0.30109E-01
  0.21975E-01
  0.33079E-01
  0.31616E-01
  0.38056E-01
  0.34622E-01
  0.27799E-01
  0.64736E-02
  0.22071E-01
  0.21690E-01
 -0.86110E-02
  0.91563E-03
 -0.40167E-01
  0.21996E-02
 -0.67883E-03
  0.70955E-02
 -0.46671E-01
  0.33531E-02
  0.31831E-02
  0.46496E-02
  0.59382E-02
  0.71492E-02
  0.32908E-02
  0.50998E-03
 -0.64965E-03
  0.89493E-02
  0.25723E-02
  0.36602E-02
  0.37203E-01
  0.87443E-02
  0.13764E-01
  0.51958E-02
  0.31277E-02
  0.13469E-01
  0.33841E-02
  0.18084E-02
 -0.85246E-03
 -0.37897E-01
  0.65023E-02
  0.33605E-01
  0.39986E-01
 -0.54032E-03
 -0.52715E-01
 -0.22218E-02
  0.23655E-01
  0.23589E-01
  0.12615E-02
  0.30859E-01
  0.50345E-02
  0.58660E-02
  0.74354E-02
 -0.19729E-01
 -0.18447E-01
 -0.20593E-01
  0.26259E-01
  0.30169E-01
 -0.49979E-01
  0.94784E-02
  0.32164E-01
 -0.60041E-02
 -0.14235E-01
 -0.21390E-03
  0.58291E-02
  0.17253E-02
  0.12281E-01
  0.26464E-01
  0.23488E-01
  0.22993E-01
  0.44250E-02
  0.51032E-02
  0.39179E-02
  0.43837E-02
  0.33419E-01
  0.16279E-01
  0.16059E-01
 -0.43039E-02
  0.26394E-01
  0.28619E-01
 -0.47393E-02
  0.73131E-02
  0.52138E-02
  0.22685E-02
  0.38367E-02
  0.56833E-02
  0.58801E-02
 -0.14308E-01
 -0.14280E-01
 -0.47275E-01
 -0.42032E-01
  0.10438E-01
  0.11305E-01
  0.12732E-01
  0.31387E-01
  0.29847E-01
  0.31811E-01
  0.13945E-01
  0.11659E-01
  0.12361E-02
 -0.10771E-01
 -0.22368E-01
  0.10615E-01
  0.38093E-01
  0.33659E-01
  0.33035E-01
  0.55493E-02
 -0.49291E-01
  0.31829E-01
  0.86838E-02
  0.14885E-01
  0.14437E-01
  0.13193E-02
  0.11707E-01
  0.19738E-02
  0.20859E-02
  0.36964E-02
  0.21002E-01
  0.26776E-02
  0.50633E-02
  0.10846E-02
 -0.77272E-03
  0.98939E-02
 -0.51084E-01
 -0.14376E-01
 -0.17424E-01
 -0.13447E-01
 -0.19013E-01
  0.31529E-02
 -0.10064E-02
  0.27759E-01
 -0.13141E-01
  0.72438E-02
  0.68828E-02
  0.67247E-02
  0.35722E-01
  0.25921E-02
  0.14900E-01
  0.24592E-01
 -0.10556E-01
 -0.15331E-01
  0.13796E-01
  0.79602E-02
 -0.38816E-01
  0.31075E-01
  0.31630E-01
  0.40441E-01
  0.41279E-01
  0.39558E-01
  0.40983E-01
  0.39204E-01
  0.24668E-02
  0.23538E-01
  0.56280E-02
  0.43469E-01
  0.91110E-03
  0.11873E-02
  0.20187E-01
  0.22463E-01
 -0.74671E-02
 -0.98365E-02
 -0.25588E-02
 -0.44062E-02
 -0.12529E-01
  0.35308E-02
  0.17257E-01
 -0.79850E-03
 -0.38069E-02
 -0.61271E-02
 -0.35421E-02
  0.19104E-01
  0.69240E-02
  0.61453E-02
  0.57898E-02
  0.27460E-01
  0.42611E-01
  0.61075E-02
  0.11389E-01
  0.11078E-01
  0.26962E-02
  0.52472E-02
  0.67827E-02
  0.12427E-01
 -0.35510E-02
 -0.23193E-01
 -0.92528E-04
  0.58327E-02
  0.31394E-04
 -0.44690E-01
 -0.28855E-01
 -0.38204E-01
  0.31720E-01
  0.29913E-01
  0.32636E-01
  0.58043E-02
 -0.30178E-01
 -0.26569E-01
 -0.86633E-03
 -0.22184E-01
  0.24051E-01
  0.24593E-01
  0.13862E-01
  0.32384E-01
 -0.18592E-01
 -0.20000E-01
 -0.16468E-01
  0.20270E-01
  0.20150E-01
  0.21541E-01
  0.18523E-01
  0.20082E-01
  0.21479E-01
  0.23127E-01
  0.23946E-01
  0.29953E-01
  0.30526E-01
  0.30752E-01
  0.31090E-01
  0.97202E-02
  0.28396E-01
  0.27622E-01
  0.29380E-01
  0.29991E-01
  0.26763E-01
  0.28681E-01
  0.27851E-01
 -0.83510E-02
  0.20187E-01
  0.20394E-01
  0.19823E-01
  0.20462E-01
  0.20524E-01
  0.19430E-01
  0.20755E-01
  0.20408E-01
  0.20060E-01
  0.18589E-01
  0.17476E-01
  0.52410E-02
  0.25801E-01
  0.26051E-01
  0.26752E-01
  0.26972E-01
  0.27477E-01
  0.27477E-01
  0.27695E-01
 -0.89363E-02
 -0.10434E-01
  0.10337E-02
  0.25165E-01
  0.27771E-01
  0.28289E-01
 -0.17180E-01
 -0.18185E-01
  0.87029E-03
 -0.13484E-02
  0.21703E-01
  0.26784E-01
  0.26874E-01
  0.21700E-01
  0.61057E-02
  0.13868E-01
  0.14161E-01
  0.12199E-01
  0.11805E-01
  0.10003E-01
  0.87678E-02
  0.73275E-02
  0.91743E-02
  0.11403E-01
  0.12421E-01
  0.31124E-01
  0.12852E-01
  0.11210E-01
  0.12453E-01
  0.10297E-01
  0.11702E-01
  0.13832E-01
  0.13168E-01
  0.10453E-01
 -0.10029E-01
  0.27236E-01
  0.29454E-01
  0.30536E-01
  0.45955E-02
  0.17491E-01
  0.16283E-01
  0.17753E-01
  0.16351E-01
  0.17957E-01
  0.16268E-01
  0.14310E-01
  0.18980E-01
  0.18113E-01
  0.17387E-01
  0.16922E-01
  0.18323E-01
  0.16682E-01
  0.18087E-01
  0.18741E-01
  0.19486E-01
 -0.83993E-03
  0.24428E-01
 -0.38839E-01
 -0.22924E-02
  0.12298E-01
 -0.12529E-01
  0.42981E-02
  0.15268E-01
  0.13363E-01
  0.12115E-01
  0.14936E-01
  0.12903E-01
  0.28356E-01
 -0.29245E-01
 -0.57862E-03
  0.33584E-01
  0.45069E-03
  0.83717E-02
  0.20205E-01
  0.19378E-01
  0.14169E-01
  0.12054E-01
  0.74331E-02
  0.24837E-02
  0.11790E-01
  0.24303E-02
  0.18771E-01
  0.97782E-02
 -0.11386E-01
 -0.77403E-02
 -0.28087E-02
 -0.21366E-02
 -0.33151E-01
  0.92804E-02
  0.96048E-02
  0.82057E-02
  0.18554E-01
  0.59948E-02
  0.53461E-02
  0.71210E-02
  0.62816E-02
  0.35071E-02
  0.48606E-02
  0.76770E-02
  0.61536E-02
  0.31509E-02
  0.20658E-01
  0.21165E-01
  0.77086E-02
  0.45834E-02
 -0.23996E-01
  0.67154E-02
  0.10524E-01
  0.34043E-01
  0.33924E-01
  0.33377E-01
  0.33106E-01
  0.32315E-01
  0.13185E-01
  0.14055E-02
  0.19186E-01
  0.11056E-01
  0.61200E-02
  0.44383E-02
  0.22425E-01
  0.16558E-01
  0.15042E-02
 -0.63524E-03
 -0.84588E-02
 -0.13455E-01
 -0.41048E-03
  0.42226E-02
  0.53227E-02
  0.49365E-02
  0.76717E-02
  0.73221E-02
  0.97947E-02
  0.95683E-02
  0.65782E-02
  0.91297E-02
  0.11861E-01
  0.14070E-01
  0.13867E-01
  0.15515E-01
  0.15930E-01
  0.28218E-02
  0.26361E-02
  0.28589E-02
  0.17483E-02
  0.26170E-02
 -0.17204E-01
  0.42751E-02
  0.87207E-02
 -0.15878E-01
 -0.99001E-02
  0.13566E-01
 -0.44260E-02
  0.10621E-01
  0.86141E-02
 -0.56787E-02
  0.32858E-01
 -0.17814E-02
 -0.21406E-01
 -0.50154E-02
  0.30752E-02
  0.18134E-01
  0.34899E-01
  0.15884E-01
  0.54698E-02
 -0.12933E-01
  0.12021E-01
  0.79267E-02
 -0.23886E-01
  0.13829E-02
  0.26396E-02
  0.14054E-01
  0.34578E-02
  0.82312E-02
  0.93028E-02
 -0.11060E-01
 -0.42329E-01
 -0.45822E-01
  0.49470E-02
  0.52160E-02
  0.32989E-01
  0.20500E-01
  0.24923E-02
 -0.68849E-02
  0.25315E-01
  0.33642E-01
  0.23047E-01
 -0.37979E-01
  0.14999E-01
  0.17300E-01
  0.12829E-01
 -0.10906E-01
  0.60606E-02
  0.13191E-01
  0.32464E-02
 -0.36221E-01
  0.67533E-02
  0.11577E-01
  0.60564E-02
  0.40668E-01
  0.15234E-01
 -0.30127E-01
  0.23098E-01
  0.17532E-03
  0.11758E-01
  0.17411E-01
  0.13467E-01
  0.50208E-02
  0.62020E-02
 -0.92376E-02
  0.39742E-02
  0.44865E-02
  0.31918E-01
  0.34790E-02
  0.20243E-02
  0.33811E-01
 -0.24297E-01
 -0.18260E-01
  0.81824E-03
  0.22483E-01
 -0.57589E-01
 -0.55425E-01
  0.49561E-02
  0.24021E-01
 -0.94569E-02
 -0.20001E-01
 -0.47689E-01
  0.34819E-02
  0.12209E-01
  0.28991E-01
  0.15853E-01
  0.84662E-02
 -0.74614E-02
  0.15005E-01
  0.16539E-01
  0.48978E-02
  0.84069E-02
  0.31880E-01
  0.19848E-02
  0.21290E-01
  0.31205E-01
  0.38763E-02
  0.71916E-02
  0.16477E-01
 -0.46270E-01
 -0.13466E-01
  0.40170E-02
 -0.18765E-01
  0.32365E-01
  0.30412E-02
  0.14030E-01
  0.88774E-02
  0.20960E-01
  0.59351E-02
  0.28430E-01
  0.21930E-01
  0.62459E-02
  0.21680E-01
  0.12248E-01
  0.14468E-01
 -0.16989E-02
  0.56625E-02
  0.25970E-01
  0.10569E-01
 -0.42927E-01
  0.91320E-02
  0.28284E-01
  0.69300E-02
 -0.30881E-01
  0.33344E-01
  0.97321E-02
  0.24537E-02
  0.36874E-02
  0.30365E-01
 -0.23254E-02
  0.21792E-01
  0.29686E-01
  0.36058E-02
  0.20422E-01
  0.25454E-01
  0.21776E-01
  0.35728E-01
  0.31902E-01
  0.26663E-01
 -0.11956E-01
  0.25729E-01
  0.17107E-02
 -0.40634E-03
 -0.19515E-01