# vtk DataFile Version 2.0
Unstructured Grid UFVM-ECOMOD
ASCII
DATASET UNSTRUCTURED_GRID
 POINTS         1810  float
  0.00000E+00  0.00000E+00  0.00000E+00
  0.40000E+01  0.00000E+00  0.00000E+00
  0.40000E+01  0.20000E+01  0.00000E+00
  0.00000E+00  0.20000E+01  0.00000E+00
  0.12217E+01  0.98333E+00  0.00000E+00
  0.81167E+00  0.11389E+01  0.00000E+00
  0.12217E+01  0.12944E+01  0.00000E+00
  0.10000E+00  0.00000E+00  0.00000E+00
  0.20000E+00  0.00000E+00  0.00000E+00
  0.30000E+00  0.00000E+00  0.00000E+00
  0.40000E+00  0.00000E+00  0.00000E+00
  0.50000E+00  0.00000E+00  0.00000E+00
  0.60000E+00  0.00000E+00  0.00000E+00
  0.70000E+00  0.00000E+00  0.00000E+00
  0.80000E+00  0.00000E+00  0.00000E+00
  0.90000E+00  0.00000E+00  0.00000E+00
  0.10000E+01  0.00000E+00  0.00000E+00
  0.11000E+01  0.00000E+00  0.00000E+00
  0.12000E+01  0.00000E+00  0.00000E+00
  0.13000E+01  0.00000E+00  0.00000E+00
  0.14000E+01  0.00000E+00  0.00000E+00
  0.15000E+01  0.00000E+00  0.00000E+00
  0.16000E+01  0.00000E+00  0.00000E+00
  0.17000E+01  0.00000E+00  0.00000E+00
  0.18000E+01  0.00000E+00  0.00000E+00
  0.19000E+01  0.00000E+00  0.00000E+00
  0.20000E+01  0.00000E+00  0.00000E+00
  0.21000E+01  0.00000E+00  0.00000E+00
  0.22000E+01  0.00000E+00  0.00000E+00
  0.23000E+01  0.00000E+00  0.00000E+00
  0.24000E+01  0.00000E+00  0.00000E+00
  0.25000E+01  0.00000E+00  0.00000E+00
  0.26000E+01  0.00000E+00  0.00000E+00
  0.27000E+01  0.00000E+00  0.00000E+00
  0.28000E+01  0.00000E+00  0.00000E+00
  0.29000E+01  0.00000E+00  0.00000E+00
  0.30000E+01  0.00000E+00  0.00000E+00
  0.31000E+01  0.00000E+00  0.00000E+00
  0.32000E+01  0.00000E+00  0.00000E+00
  0.33000E+01  0.00000E+00  0.00000E+00
  0.34000E+01  0.00000E+00  0.00000E+00
  0.35000E+01  0.00000E+00  0.00000E+00
  0.36000E+01  0.00000E+00  0.00000E+00
  0.37000E+01  0.00000E+00  0.00000E+00
  0.38000E+01  0.00000E+00  0.00000E+00
  0.39000E+01  0.00000E+00  0.00000E+00
  0.40000E+01  0.10000E+00  0.00000E+00
  0.40000E+01  0.20000E+00  0.00000E+00
  0.40000E+01  0.30000E+00  0.00000E+00
  0.40000E+01  0.40000E+00  0.00000E+00
  0.40000E+01  0.50000E+00  0.00000E+00
  0.40000E+01  0.60000E+00  0.00000E+00
  0.40000E+01  0.70000E+00  0.00000E+00
  0.40000E+01  0.80000E+00  0.00000E+00
  0.40000E+01  0.90000E+00  0.00000E+00
  0.40000E+01  0.10000E+01  0.00000E+00
  0.40000E+01  0.11000E+01  0.00000E+00
  0.40000E+01  0.12000E+01  0.00000E+00
  0.40000E+01  0.13000E+01  0.00000E+00
  0.40000E+01  0.14000E+01  0.00000E+00
  0.40000E+01  0.15000E+01  0.00000E+00
  0.40000E+01  0.16000E+01  0.00000E+00
  0.40000E+01  0.17000E+01  0.00000E+00
  0.40000E+01  0.18000E+01  0.00000E+00
  0.40000E+01  0.19000E+01  0.00000E+00
  0.39000E+01  0.20000E+01  0.00000E+00
  0.38000E+01  0.20000E+01  0.00000E+00
  0.37000E+01  0.20000E+01  0.00000E+00
  0.36000E+01  0.20000E+01  0.00000E+00
  0.35000E+01  0.20000E+01  0.00000E+00
  0.34000E+01  0.20000E+01  0.00000E+00
  0.33000E+01  0.20000E+01  0.00000E+00
  0.32000E+01  0.20000E+01  0.00000E+00
  0.31000E+01  0.20000E+01  0.00000E+00
  0.30000E+01  0.20000E+01  0.00000E+00
  0.29000E+01  0.20000E+01  0.00000E+00
  0.28000E+01  0.20000E+01  0.00000E+00
  0.27000E+01  0.20000E+01  0.00000E+00
  0.26000E+01  0.20000E+01  0.00000E+00
  0.25000E+01  0.20000E+01  0.00000E+00
  0.24000E+01  0.20000E+01  0.00000E+00
  0.23000E+01  0.20000E+01  0.00000E+00
  0.22000E+01  0.20000E+01  0.00000E+00
  0.21000E+01  0.20000E+01  0.00000E+00
  0.20000E+01  0.20000E+01  0.00000E+00
  0.19000E+01  0.20000E+01  0.00000E+00
  0.18000E+01  0.20000E+01  0.00000E+00
  0.17000E+01  0.20000E+01  0.00000E+00
  0.16000E+01  0.20000E+01  0.00000E+00
  0.15000E+01  0.20000E+01  0.00000E+00
  0.14000E+01  0.20000E+01  0.00000E+00
  0.13000E+01  0.20000E+01  0.00000E+00
  0.12000E+01  0.20000E+01  0.00000E+00
  0.11000E+01  0.20000E+01  0.00000E+00
  0.10000E+01  0.20000E+01  0.00000E+00
  0.90000E+00  0.20000E+01  0.00000E+00
  0.80000E+00  0.20000E+01  0.00000E+00
  0.70000E+00  0.20000E+01  0.00000E+00
  0.60000E+00  0.20000E+01  0.00000E+00
  0.50000E+00  0.20000E+01  0.00000E+00
  0.40000E+00  0.20000E+01  0.00000E+00
  0.30000E+00  0.20000E+01  0.00000E+00
  0.20000E+00  0.20000E+01  0.00000E+00
  0.10000E+00  0.20000E+01  0.00000E+00
  0.00000E+00  0.19000E+01  0.00000E+00
  0.00000E+00  0.18000E+01  0.00000E+00
  0.00000E+00  0.17000E+01  0.00000E+00
  0.00000E+00  0.16000E+01  0.00000E+00
  0.00000E+00  0.15000E+01  0.00000E+00
  0.00000E+00  0.14000E+01  0.00000E+00
  0.00000E+00  0.13000E+01  0.00000E+00
  0.00000E+00  0.12000E+01  0.00000E+00
  0.00000E+00  0.11000E+01  0.00000E+00
  0.00000E+00  0.10000E+01  0.00000E+00
  0.00000E+00  0.90000E+00  0.00000E+00
  0.00000E+00  0.80000E+00  0.00000E+00
  0.00000E+00  0.70000E+00  0.00000E+00
  0.00000E+00  0.60000E+00  0.00000E+00
  0.00000E+00  0.50000E+00  0.00000E+00
  0.00000E+00  0.40000E+00  0.00000E+00
  0.00000E+00  0.30000E+00  0.00000E+00
  0.00000E+00  0.20000E+00  0.00000E+00
  0.00000E+00  0.10000E+00  0.00000E+00
  0.11989E+01  0.99198E+00  0.00000E+00
  0.11761E+01  0.10006E+01  0.00000E+00
  0.11533E+01  0.10093E+01  0.00000E+00
  0.11306E+01  0.10179E+01  0.00000E+00
  0.11078E+01  0.10265E+01  0.00000E+00
  0.10850E+01  0.10352E+01  0.00000E+00
  0.10622E+01  0.10438E+01  0.00000E+00
  0.10394E+01  0.10525E+01  0.00000E+00
  0.10167E+01  0.10611E+01  0.00000E+00
  0.99389E+00  0.10697E+01  0.00000E+00
  0.97111E+00  0.10784E+01  0.00000E+00
  0.94833E+00  0.10870E+01  0.00000E+00
  0.92556E+00  0.10957E+01  0.00000E+00
  0.90278E+00  0.11043E+01  0.00000E+00
  0.88000E+00  0.11130E+01  0.00000E+00
  0.85722E+00  0.11216E+01  0.00000E+00
  0.83444E+00  0.11302E+01  0.00000E+00
  0.83444E+00  0.11475E+01  0.00000E+00
  0.85722E+00  0.11562E+01  0.00000E+00
  0.88000E+00  0.11648E+01  0.00000E+00
  0.90278E+00  0.11735E+01  0.00000E+00
  0.92556E+00  0.11821E+01  0.00000E+00
  0.94833E+00  0.11907E+01  0.00000E+00
  0.97111E+00  0.11994E+01  0.00000E+00
  0.99389E+00  0.12080E+01  0.00000E+00
  0.10167E+01  0.12167E+01  0.00000E+00
  0.10394E+01  0.12253E+01  0.00000E+00
  0.10622E+01  0.12340E+01  0.00000E+00
  0.10850E+01  0.12426E+01  0.00000E+00
  0.11078E+01  0.12512E+01  0.00000E+00
  0.11306E+01  0.12599E+01  0.00000E+00
  0.11533E+01  0.12685E+01  0.00000E+00
  0.11761E+01  0.12772E+01  0.00000E+00
  0.11989E+01  0.12858E+01  0.00000E+00
  0.12217E+01  0.12705E+01  0.00000E+00
  0.12217E+01  0.12466E+01  0.00000E+00
  0.12217E+01  0.12227E+01  0.00000E+00
  0.12217E+01  0.11987E+01  0.00000E+00
  0.12217E+01  0.11748E+01  0.00000E+00
  0.12217E+01  0.11508E+01  0.00000E+00
  0.12217E+01  0.11269E+01  0.00000E+00
  0.12217E+01  0.11030E+01  0.00000E+00
  0.12217E+01  0.10791E+01  0.00000E+00
  0.12217E+01  0.10551E+01  0.00000E+00
  0.12217E+01  0.10312E+01  0.00000E+00
  0.12217E+01  0.10073E+01  0.00000E+00
  0.12429E+01  0.10188E+01  0.00000E+00
  0.12399E+01  0.11882E+01  0.00000E+00
  0.21377E+01  0.78680E-01  0.00000E+00
  0.21538E+01  0.19174E+01  0.00000E+00
  0.83774E+00  0.11061E+01  0.00000E+00
  0.97541E+00  0.10554E+01  0.00000E+00
  0.11166E+01  0.10045E+01  0.00000E+00
  0.29463E+01  0.19156E+01  0.00000E+00
  0.26515E+01  0.81480E-01  0.00000E+00
  0.25477E+01  0.19110E+01  0.00000E+00
  0.30502E+01  0.68680E-01  0.00000E+00
  0.83912E+00  0.11750E+01  0.00000E+00
  0.95224E+00  0.12148E+01  0.00000E+00
  0.10661E+01  0.12580E+01  0.00000E+00
  0.11804E+01  0.13002E+01  0.00000E+00
  0.39119E+01  0.10505E+01  0.00000E+00
  0.17555E+01  0.84130E-01  0.00000E+00
  0.64649E+00  0.99150E-01  0.00000E+00
  0.17446E+01  0.19250E+01  0.00000E+00
  0.86600E-01  0.65000E+00  0.00000E+00
  0.14551E+01  0.78430E-01  0.00000E+00
  0.96058E+00  0.81690E-01  0.00000E+00
  0.33501E+01  0.19134E+01  0.00000E+00
  0.39162E+01  0.63967E+00  0.00000E+00
  0.82470E-01  0.14561E+01  0.00000E+00
  0.55009E+00  0.19215E+01  0.00000E+00
  0.85020E-01  0.95314E+00  0.00000E+00
  0.39167E+01  0.13623E+01  0.00000E+00
  0.33616E+01  0.95540E-01  0.00000E+00
  0.90682E+00  0.10774E+01  0.00000E+00
  0.10433E+01  0.10284E+01  0.00000E+00
  0.11799E+01  0.97718E+00  0.00000E+00
  0.12429E+01  0.10931E+01  0.00000E+00
  0.12436E+01  0.12583E+01  0.00000E+00
  0.85035E+00  0.19198E+01  0.00000E+00
  0.14457E+01  0.19288E+01  0.00000E+00
  0.11516E+01  0.19130E+01  0.00000E+00
  0.36450E+01  0.85340E-01  0.00000E+00
  0.84610E-01  0.34945E+00  0.00000E+00
  0.36500E+01  0.19134E+01  0.00000E+00
  0.35776E+00  0.89100E-01  0.00000E+00
  0.39086E+01  0.16476E+01  0.00000E+00
  0.39134E+01  0.35000E+00  0.00000E+00
  0.83900E-01  0.11460E+01  0.00000E+00
  0.35715E+00  0.19076E+01  0.00000E+00
  0.83410E-01  0.16549E+01  0.00000E+00
  0.12495E+01  0.81910E-01  0.00000E+00
  0.19505E+01  0.76550E-01  0.00000E+00
  0.23503E+01  0.82860E-01  0.00000E+00
  0.19504E+01  0.19252E+01  0.00000E+00
  0.23461E+01  0.19181E+01  0.00000E+00
  0.28427E+01  0.83720E-01  0.00000E+00
  0.31542E+01  0.19172E+01  0.00000E+00
  0.27508E+01  0.19148E+01  0.00000E+00
  0.39150E+01  0.84994E+00  0.00000E+00
  0.88020E+00  0.11939E+01  0.00000E+00
  0.99745E+00  0.12340E+01  0.00000E+00
  0.12424E+01  0.11389E+01  0.00000E+00
  0.11119E+01  0.12747E+01  0.00000E+00
  0.78910E-01  0.18478E+01  0.00000E+00
  0.38489E+01  0.73890E-01  0.00000E+00
  0.86600E-01  0.15000E+00  0.00000E+00
  0.38461E+01  0.19156E+01  0.00000E+00
  0.83750E-01  0.10487E+01  0.00000E+00
  0.16314E+00  0.10008E+01  0.00000E+00
  0.16591E+00  0.91287E+00  0.00000E+00
  0.23730E+00  0.95594E+00  0.00000E+00
  0.24013E+00  0.87512E+00  0.00000E+00
  0.30661E+00  0.91623E+00  0.00000E+00
  0.30296E+00  0.99591E+00  0.00000E+00
  0.30938E+00  0.83944E+00  0.00000E+00
  0.37444E+00  0.87856E+00  0.00000E+00
  0.37563E+00  0.80503E+00  0.00000E+00
  0.43612E+00  0.84332E+00  0.00000E+00
  0.43924E+00  0.77347E+00  0.00000E+00
  0.49710E+00  0.80859E+00  0.00000E+00
  0.50063E+00  0.74182E+00  0.00000E+00
  0.55658E+00  0.77549E+00  0.00000E+00
[...]
 POINT_DATA         1810
  
 SCALARS WL      float 1
 LOOKUP_TABLE default
  0.12392E-01
  0.20610E-02
 -0.78214E-03
  0.15631E-01
 -0.29194E-01
  0.26513E-01
 -0.18790E-01
  0.12526E-01
  0.12801E-01
  0.13090E-01
  0.13321E-01
  0.13387E-01
  0.13255E-01
  0.12801E-01
  0.11937E-01
  0.10822E-01
  0.95339E-02
  0.82106E-02
  0.68961E-02
  0.58015E-02
  0.49648E-02
  0.45092E-02
  0.44084E-02
  0.46344E-02
  0.51403E-02
  0.58871E-02
  0.67878E-02
  0.76670E-02
  0.84287E-02
  0.88390E-02
  0.88890E-02
  0.84963E-02
  0.78036E-02
  0.69735E-02
  0.61479E-02
  0.53690E-02
  0.48893E-02
  0.45924E-02
  0.47303E-02
  0.51699E-02
  0.57490E-02
  0.63849E-02
  0.66821E-02
  0.64435E-02
  0.54001E-02
  0.35854E-02
  0.00000E+00
  0.00000E+00
  0.00000E+00
  0.00000E+00
  0.00000E+00
  0.00000E+00
  0.00000E+00
  0.00000E+00
  0.00000E+00
  0.00000E+00
  0.00000E+00
  0.00000E+00
  0.00000E+00
  0.00000E+00
  0.00000E+00
  0.00000E+00
  0.00000E+00
  0.00000E+00
  0.00000E+00
 -0.10245E-02
 -0.99853E-03
 -0.37951E-03
  0.73333E-03
  0.22444E-02
  0.37186E-02
  0.52349E-02
  0.66693E-02
  0.76648E-02
  0.80949E-02
  0.77574E-02
  0.69092E-02
  0.59242E-02
  0.51590E-02
  0.46357E-02
  0.44715E-02
  0.43125E-02
  0.41982E-02
  0.41455E-02
  0.42651E-02
  0.44036E-02
  0.44817E-02
  0.44899E-02
  0.44958E-02
  0.45538E-02
  0.48646E-02
  0.54764E-02
  0.62588E-02
  0.73190E-02
  0.84655E-02
  0.96590E-02
  0.10790E-01
  0.11767E-01
  0.12583E-01
  0.13269E-01
  0.13889E-01
  0.14433E-01
  0.14947E-01
  0.15397E-01
  0.15678E-01
  0.15724E-01
  0.15785E-01
  0.15851E-01
  0.15905E-01
  0.15921E-01
  0.15871E-01
  0.15750E-01
  0.15543E-01
  0.15257E-01
  0.14909E-01
  0.14516E-01
  0.14090E-01
  0.13680E-01
  0.13306E-01
  0.12993E-01
  0.12729E-01
  0.12533E-01
  0.12413E-01
 -0.14338E-01
 -0.90590E-02
 -0.49756E-02
 -0.24830E-02
  0.12027E-02
  0.38944E-02
  0.46894E-02
  0.67263E-02
  0.84954E-02
  0.10130E-01
  0.11340E-01
  0.13111E-01
  0.14443E-01
  0.16640E-01
  0.18151E-01
  0.20112E-01
  0.23306E-01
  0.25762E-01
  0.22606E-01
  0.21386E-01
  0.19237E-01
  0.18383E-01
  0.16399E-01
  0.15605E-01
  0.14096E-01
  0.12965E-01
  0.11778E-01
  0.10352E-01
  0.88608E-02
  0.73320E-02
  0.53816E-02
  0.26450E-02
 -0.52543E-03
 -0.52278E-02
 -0.23510E-01
 -0.22607E-01
 -0.24027E-01
 -0.26934E-01
 -0.31990E-01
 -0.37849E-01
 -0.43388E-01
 -0.46945E-01
 -0.47971E-01
 -0.46236E-01
 -0.42617E-01
 -0.38945E-01
 -0.40827E-01
 -0.29554E-01
  0.79852E-02
  0.42643E-02
  0.21048E-01
  0.10785E-01
 -0.10854E-02
  0.79085E-02
  0.73753E-02
  0.48049E-02
  0.47071E-02
  0.23056E-01
  0.16035E-01
  0.96251E-02
 -0.21521E-02
 -0.24728E-03
  0.48887E-02
  0.13036E-01
  0.43828E-02
  0.13926E-01
  0.46323E-02
  0.10054E-01
  0.45237E-02
  0.38624E-02
  0.15795E-01
  0.12998E-01
  0.15082E-01
 -0.50385E-02
  0.54792E-02
  0.15324E-01
  0.56958E-02
 -0.10856E-01
 -0.48609E-01
 -0.22728E-01
  0.10335E-01
  0.45628E-02
  0.67014E-02
  0.66922E-02
  0.12934E-01
  0.97978E-04
  0.13237E-01
 -0.26785E-02
  0.33488E-02
  0.15599E-01
  0.14169E-01
  0.15653E-01
  0.62619E-02
  0.63563E-02
  0.89165E-02
  0.43217E-02
  0.44842E-02
  0.58216E-02
  0.72107E-02
  0.63783E-02
  0.29124E-02
  0.20063E-01
  0.13442E-01
 -0.41724E-01
  0.66012E-02
  0.15538E-01
  0.45959E-02
  0.12583E-01
 -0.11630E-02
  0.15374E-01
  0.15234E-01
  0.14963E-01
  0.15148E-01
  0.14886E-01
  0.15076E-01
  0.15326E-01
  0.14801E-01
  0.14986E-01
  0.14680E-01
  0.14831E-01
  0.14502E-01
  0.14582E-01
  0.14227E-01
  0.14224E-01
  0.13833E-01
  0.13719E-01
  0.13337E-01
  0.13068E-01
  0.15006E-01
  0.12756E-01
  0.12306E-01
  0.12731E-01
  0.11772E-01
  0.11430E-01
  0.10678E-01
  0.10471E-01
  0.95392E-02
  0.94705E-02
  0.83656E-02
  0.84021E-02
  0.70668E-02
  0.72174E-02
  0.57640E-02
  0.61551E-02
  0.46478E-02
  0.13510E-01
  0.12317E-01
  0.52269E-02
  0.36518E-02
  0.27248E-02
  0.18301E-02
  0.29465E-02
  0.13706E-02
 -0.10795E-03
 -0.22338E-03
 -0.20788E-02
 -0.16949E-02
  0.10614E-03
 -0.86064E-03
 -0.29885E-02
 -0.15332E-02
 -0.39809E-02
 -0.16775E-02
 -0.43294E-02
 -0.10228E-02
 -0.37961E-02
  0.28678E-03
 -0.22977E-02
  0.22692E-02
 -0.13352E-03
  0.42402E-02
  0.15080E-02
  0.52161E-02
  0.10400E-02
  0.38461E-02
 -0.31432E-02
 -0.87859E-03
  0.56066E-02
  0.11016E-02
 -0.60628E-02
 -0.39534E-02
  0.12588E-02
 -0.47783E-02
 -0.93106E-02
 -0.73533E-03
 -0.82057E-02
  0.33619E-02
 -0.44013E-02
 -0.11852E-01
 -0.14527E-01
 -0.16208E-01
 -0.16991E-01
 -0.15790E-01
 -0.11714E-01
 -0.98411E-02
 -0.47591E-02
 -0.39531E-02
 -0.74184E-02
 -0.37079E-02
 -0.45114E-03
 -0.15541E-02
  0.16433E-02
 -0.60118E-04
 -0.36408E-02
 -0.24328E-02
  0.12316E-02
 -0.84825E-03
  0.12364E-03
  0.24849E-02
  0.24533E-03
 -0.28686E-02
 -0.22769E-02
 -0.11896E-04
 -0.33102E-02
 -0.54087E-02
 -0.16114E-02
 -0.42497E-02
 -0.61576E-02
  0.27000E-02
 -0.48098E-02
 -0.72694E-02
 -0.39750E-02
 -0.24186E-02
 -0.13122E-03
  0.49472E-02
  0.36978E-02
 -0.59095E-02
 -0.91131E-02
 -0.65033E-02
  0.70693E-02
 -0.95385E-03
  0.64480E-02
  0.61000E-02
  0.10408E-01
  0.65905E-02
 -0.28090E-02
  0.92615E-03
 -0.75147E-02
  0.70260E-02
  0.69752E-02
 -0.50039E-03
  0.22927E-02
  0.36627E-02
  0.63550E-02
  0.73983E-02
  0.71949E-02
  0.73001E-02
  0.72920E-02
  0.68627E-02
  0.68024E-02
  0.65206E-02
  0.29773E-03
 -0.21507E-02
  0.24983E-02
  0.14213E-01
  0.14422E-01
  0.77383E-02
  0.74146E-02
 -0.19080E-02
  0.25387E-02
  0.81615E-02
  0.77967E-02
  0.74990E-02
  0.83288E-02
  0.79606E-02
 -0.61123E-02
 -0.65435E-02
  0.21147E-02
  0.46625E-03
  0.37202E-02
  0.24057E-02
  0.47028E-02
  0.37949E-02
  0.13957E-02
  0.31679E-02
  0.13892E-02
  0.32968E-02
  0.26481E-02
  0.52163E-02
  0.42366E-02
  0.45575E-02
  0.24947E-02
  0.60023E-02
  0.55296E-02
  0.62393E-02
  0.41573E-02
 -0.86704E-02
 -0.64594E-02
 -0.68530E-02
 -0.44278E-02
 -0.30567E-02
 -0.11317E-02
  0.80701E-03
  0.21187E-02
 -0.39118E-03
 -0.13794E-02
  0.24430E-02
  0.54640E-03
  0.36684E-02
  0.23816E-02
  0.40470E-02
  0.22996E-02
  0.35767E-02
  0.15338E-02
  0.28336E-02
  0.63591E-03
 -0.17805E-02
 -0.29588E-02
 -0.10881E-03
 -0.34683E-02
 -0.54218E-03
 -0.33627E-02
 -0.82012E-02
 -0.67731E-02
 -0.28855E-02
 -0.51529E-02
 -0.92134E-02
 -0.62081E-02
 -0.88621E-02
 -0.35718E-02
 -0.39192E-02
 -0.25421E-02
 -0.30547E-02
 -0.17536E-02
 -0.25261E-02
 -0.66582E-03
 -0.11812E-02
  0.78725E-03
  0.10658E-02
  0.26716E-02
  0.33489E-02
  0.46001E-02
  0.55641E-02
  0.63343E-02
  0.74367E-02
 -0.37398E-02
 -0.85010E-03
  0.23215E-02
  0.78035E-02
  0.89465E-02
  0.88527E-02
  0.10180E-01
  0.10241E-01
  0.11420E-01
  0.11164E-01
  0.12355E-01
  0.11924E-01
  0.12983E-01
  0.13705E-01
  0.14016E-01
  0.13378E-01
  0.14244E-01
  0.14980E-01
  0.15007E-01
  0.15818E-01
  0.15621E-01
  0.14952E-01
  0.15417E-01
  0.16049E-01
  0.15737E-01
  0.16279E-01
  0.14899E-01
  0.15903E-01
  0.16316E-01
  0.15941E-01
  0.15663E-01
  0.16774E-01
  0.15904E-01
  0.87887E-02
  0.10289E-01
 -0.76324E-02
  0.16215E-01
  0.16811E-01
  0.15905E-01
  0.16433E-01
  0.16994E-01
 -0.13692E-01
 -0.10992E-01
 -0.17616E-01
 -0.16437E-01
 -0.10622E-01
 -0.21169E-01
 -0.16123E-01
 -0.30913E-01
  0.27137E-02
 -0.28009E-03
 -0.32597E-01
 -0.44272E-01
 -0.42928E-01
 -0.55817E-01
 -0.52064E-01
 -0.61540E-01
 -0.21923E-01
  0.45649E-02
 -0.13481E-01
  0.90102E-02
  0.50818E-02
  0.61105E-02
  0.56494E-02
 -0.51532E-02
  0.13655E-01
  0.12846E-01
  0.13198E-01
  0.57979E-02
  0.70672E-02
  0.63210E-02
 -0.54576E-03
  0.14680E-02
  0.39030E-02
 -0.33410E-02
  0.75289E-02
  0.59791E-02
  0.15592E-02
  0.12042E-02
  0.42289E-02
  0.65219E-02
 -0.51999E-01
 -0.59216E-01
 -0.64696E-01
 -0.60484E-01
  0.45108E-03
  0.70590E-02
  0.86955E-02
  0.10480E-01
  0.11779E-02
  0.40828E-02
  0.16502E-01
  0.17030E-01
  0.17717E-01
  0.17712E-01
  0.16871E-01
  0.17508E-01
  0.67687E-02
  0.26184E-02
 -0.53587E-01
 -0.38846E-01
  0.55308E-02
  0.79902E-02
  0.60070E-02
  0.50437E-02
  0.48781E-02
  0.43165E-02
  0.43471E-02
  0.39184E-02
  0.27155E-02
  0.35686E-04
 -0.39153E-02
 -0.22341E-02
 -0.64880E-02
 -0.25143E-02
  0.13349E-02
  0.23484E-02
  0.66274E-02
  0.71726E-02
  0.67985E-02
  0.85193E-02
  0.71700E-02
  0.87377E-02
  0.74164E-02
  0.91394E-02
  0.56294E-02
  0.57851E-02
  0.38485E-02
  0.38793E-02
  0.17446E-02
  0.60471E-02
  0.16498E-01
  0.16733E-01
  0.17672E-01
  0.16728E-01
  0.28148E-02
  0.82510E-02
 -0.41023E-01
  0.16890E-02
 -0.80166E-03
 -0.38731E-03
 -0.32899E-02
 -0.22032E-02
 -0.43953E-02
  0.66969E-02
  0.11784E-01
  0.76390E-02
  0.18653E-01
 -0.16455E-02
  0.12164E-01
  0.13198E-01
  0.64134E-02
 -0.20479E-02
  0.15923E-01
  0.15666E-01
  0.16413E-01
  0.15123E-01
  0.15660E-01
  0.82463E-02
  0.14229E-01
  0.14514E-01
  0.12385E-01
  0.82866E-02
  0.86734E-02
  0.94733E-02
 -0.35114E-01
  0.90511E-02
 -0.43431E-02
  0.12855E-01
 -0.62140E-01
 -0.55956E-01
 -0.51094E-01
 -0.46167E-01
  0.26090E-02
  0.23953E-02
  0.16117E-01
  0.56963E-02
 -0.37858E-01
 -0.33616E-01
 -0.38547E-01
 -0.28004E-01
  0.71840E-02
  0.13579E-01
  0.14566E-01
  0.47673E-02
  0.50581E-02
  0.54909E-02
 -0.30456E-01
 -0.21965E-01
 -0.21832E-01
 -0.16114E-01
 -0.60287E-02
  0.14843E-01
  0.46134E-02
  0.43777E-02
  0.39078E-02
 -0.91347E-03
  0.17599E-02
  0.16209E-01
  0.28977E-02
  0.62935E-02
  0.35460E-02
  0.58646E-02
  0.74313E-02
 -0.45752E-01
 -0.33383E-01
 -0.22611E-01
 -0.25196E-01
 -0.13843E-01
  0.85722E-02
  0.52316E-02
  0.68004E-02
 -0.59815E-02
  0.42492E-02
 -0.15552E-03
  0.13030E-01
  0.13040E-01
  0.12977E-01
  0.11556E-01
  0.11383E-01
  0.33529E-02
  0.13424E-02
  0.67051E-02
  0.56330E-02
  0.60522E-02
  0.49057E-02
  0.71584E-02
 -0.24213E-02
  0.18416E-01
  0.19633E-01
 -0.23963E-01
  0.35676E-02
  0.34556E-02
  0.38637E-02
  0.76334E-02
 -0.13411E-01
 -0.91033E-02
  0.18998E-01
  0.20353E-01
  0.19241E-01
  0.20383E-01
  0.54240E-02
  0.13499E-01
  0.13282E-01
  0.13837E-01
  0.13639E-01
  0.14146E-01
 -0.15683E-01
  0.97766E-02
  0.10618E-01
  0.69834E-02
  0.68588E-02
 -0.39948E-01
  0.16445E-01
  0.15834E-01
  0.10792E-01
  0.11506E-01
  0.11378E-01
  0.12110E-01
  0.12015E-01
  0.12614E-01
  0.12581E-01
  0.13025E-01
  0.13044E-01
  0.13307E-01
  0.13356E-01
  0.13479E-01
  0.13593E-01
  0.13578E-01
  0.13457E-01
  0.13310E-01
  0.70766E-02
  0.15027E-01
  0.15971E-01
  0.15303E-01
  0.16571E-01
  0.17363E-01
  0.18980E-01
  0.41629E-02
  0.12471E-01
  0.71995E-02
  0.12688E-01
  0.13759E-01
  0.13631E-01
  0.13860E-01
  0.67356E-02
  0.64515E-02
  0.44242E-02
  0.10149E-01
  0.12815E-01
  0.69711E-02
  0.14551E-01
  0.85942E-02
  0.83601E-02
  0.78903E-02
 -0.59105E-02
  0.81152E-02
 -0.61086E-02
 -0.76060E-02
 -0.63272E-01
 -0.59488E-01
 -0.58848E-01
  0.19818E-01
 -0.26491E-01
 -0.13736E-01
  0.61115E-02
 -0.39033E-01
 -0.14837E-01
 -0.94825E-02
 -0.79439E-02
 -0.11982E-01
  0.11669E-01
  0.82809E-02
  0.90922E-02
  0.10065E-01
  0.36760E-02
  0.41130E-02
  0.30355E-02
 -0.12673E-01
 -0.41384E-02
 -0.91460E-02
 -0.56979E-02
 -0.10391E-01
 -0.85648E-02
  0.13994E-01
  0.14423E-01
  0.14577E-01
  0.14803E-01
  0.14962E-01
  0.14708E-01
  0.15139E-01
  0.15259E-01
  0.13665E-01
  0.63997E-02
  0.53638E-02
  0.50287E-02
  0.49963E-02
  0.11045E-01
  0.96693E-02
  0.91846E-02
  0.78582E-02
  0.33600E-02
  0.32551E-02
  0.23437E-02
  0.35475E-02
  0.13255E-01
  0.12941E-01
  0.71133E-02
  0.19642E-01
 -0.38820E-01
 -0.28739E-01
 -0.73389E-03
 -0.39370E-02
  0.20543E-02
 -0.10437E-01
  0.75338E-02
  0.69861E-02
 -0.18878E-01
  0.94964E-02
  0.47016E-02
  0.44023E-02
  0.32712E-02
  0.25046E-02
  0.11851E-02
  0.16687E-02
  0.29706E-02
  0.24720E-02
  0.36945E-02
  0.54183E-02
  0.68773E-02
  0.42304E-02
 -0.24834E-01
 -0.23580E-01
 -0.26229E-01
  0.65265E-02
  0.70618E-02
 -0.13485E-01
 -0.10260E-01
 -0.19257E-01
  0.18044E-01
  0.18226E-01
  0.17794E-01
  0.42914E-02
  0.47322E-02
 -0.54956E-02
 -0.68992E-02
 -0.45400E-02
  0.53262E-02
  0.51214E-02
  0.44821E-02
  0.11893E-02
 -0.39028E-02
 -0.11157E-02
 -0.40017E-02
 -0.18259E-02
 -0.29552E-02
 -0.66969E-03
  0.14586E-02
  0.22064E-02
 -0.11419E-02
  0.42127E-02
  0.17728E-02
 -0.28691E-02
 -0.53848E-02
 -0.76225E-02
  0.12856E-01
  0.11994E-01
  0.35545E-02
  0.45835E-02
 -0.35966E-02
 -0.64609E-02
 -0.39152E-02
 -0.38872E-02
  0.47061E-02
  0.16026E-01
  0.15807E-01
  0.15656E-01
  0.38544E-02
 -0.21771E-01
 -0.22974E-01
  0.41821E-02
 -0.11890E-01
  0.43979E-02
  0.42548E-02
  0.37166E-02
  0.14397E-02
  0.19066E-02
  0.12874E-05
  0.73418E-02
  0.14819E-01
 -0.33210E-02
 -0.49725E-02
  0.22204E-03
 -0.57075E-02
  0.82613E-02
  0.11991E-01
  0.11674E-01
  0.82528E-02
 -0.16863E-01
  0.22129E-01
  0.71968E-02
  0.12596E-01
  0.58370E-02
  0.63278E-02
  0.69506E-02
  0.68695E-02
  0.13772E-01
  0.41361E-02
  0.44382E-02
 -0.36975E-02
  0.56866E-02
  0.29618E-02
  0.13098E-01
  0.13338E-01
  0.13390E-01
 -0.17744E-01
 -0.42800E-02
 -0.55933E-02
  0.47889E-02
  0.48317E-02
  0.52059E-02
  0.15850E-01
  0.15247E-01
  0.19883E-03
  0.39041E-02
 -0.24315E-01
  0.78497E-02
  0.84125E-02
  0.73049E-02
  0.13442E-01
  0.10461E-01
  0.89592E-02
  0.12384E-01
  0.14211E-01
  0.15643E-01
 -0.67537E-02
  0.80285E-03
  0.75736E-02
  0.15746E-01
 -0.55265E-01
 -0.52920E-01
 -0.52841E-01
  0.74392E-02
  0.74760E-02
  0.15232E-01
 -0.72278E-02
 -0.70404E-02
  0.48388E-02
  0.45888E-02
  0.45610E-02
  0.45593E-02
 -0.12746E-01
 -0.10015E-01
  0.36782E-02
  0.27122E-02
  0.79756E-02
  0.72974E-02
  0.87465E-02
  0.39425E-02
  0.41421E-02
  0.14608E-01
  0.15404E-01
  0.15475E-01
  0.15413E-01
  0.15558E-01
  0.15622E-01
  0.15621E-01
  0.15634E-01
  0.15612E-01
  0.66837E-02
  0.43188E-02
 -0.77225E-02
  0.45796E-02
  0.47172E-02
  0.49305E-02
  0.97706E-02
  0.38577E-02
  0.35003E-02
  0.55639E-02
  0.13935E-01
  0.20712E-02
 -0.10995E-01
  0.10923E-01
  0.19743E-02
 -0.10646E-01
 -0.67219E-02
  0.63613E-02
  0.66634E-02
  0.15647E-01
  0.15677E-01
 -0.50216E-01
 -0.94998E-02
 -0.85115E-02
 -0.28207E-02
  0.52853E-02
  0.14464E-01
 -0.13991E-01
 -0.87241E-02
 -0.87700E-02
 -0.46729E-02
 -0.47866E-02
 -0.77151E-02
 -0.48258E-01
 -0.40948E-01
  0.14421E-01
  0.14518E-01
  0.38622E-02
  0.28594E-02
  0.11856E-01
  0.41610E-02
  0.63357E-02
  0.13442E-01
  0.15382E-01
  0.52130E-02
  0.15680E-01
  0.36199E-02
  0.78283E-02
  0.10658E-01
  0.96856E-02
  0.43012E-02
  0.51308E-02
  0.50364E-02
  0.59563E-02
  0.58786E-02
  0.66575E-02
  0.62849E-02
 -0.22682E-01
  0.60319E-02
  0.66970E-02
  0.14765E-01
 -0.18634E-01
  0.71584E-02
  0.49981E-02
  0.52014E-02
  0.26296E-02
  0.14129E-01
  0.80952E-02
  0.84690E-02
  0.86163E-02
  0.87939E-02
  0.12518E-01
 -0.14170E-02
  0.11985E-01
  0.53578E-02
 -0.30691E-01
  0.14808E-01
  0.13496E-01
  0.15521E-01
  0.46750E-02
  0.49961E-02
  0.35325E-02
  0.43241E-02
  0.47395E-02
  0.45705E-02
  0.49558E-02
  0.45325E-02
  0.48410E-02
  0.53333E-02
  0.13710E-01
  0.18513E-01
  0.20094E-01
  0.17139E-01
  0.47040E-02
  0.75188E-02
  0.10993E-01
  0.11838E-01
  0.12501E-01
 -0.83235E-02
 -0.49975E-02
 -0.59660E-01
 -0.12893E-01
 -0.18447E-02
 -0.19138E-01
  0.13911E-01
  0.39246E-02
  0.43280E-02
  0.69559E-02
 -0.12391E-02
  0.74596E-02
  0.21782E-01
 -0.16093E-01
  0.14224E-01
 -0.38139E-02
  0.21272E-01
  0.21618E-01
  0.19479E-01
  0.20173E-01
  0.22005E-01
  0.20187E-01
  0.18730E-01
 -0.60269E-02
  0.95816E-02
  0.86179E-02
  0.46752E-02
  0.13386E-01
  0.60932E-02
  0.78437E-02
  0.95030E-02
  0.30012E-02
  0.49989E-03
  0.99782E-02
 -0.13880E-01
 -0.56146E-02
 -0.47067E-01
 -0.43764E-01
 -0.36965E-01
 -0.51147E-01
 -0.29989E-01
  0.39051E-02
  0.13876E-01
  0.12813E-01
  0.15560E-01
  0.16574E-01
  0.18099E-01
  0.17051E-01
 -0.17327E-01
  0.89581E-03
  0.10562E-01
  0.69173E-02
  0.43714E-02
  0.14087E-01
  0.21686E-01
  0.65907E-02
 -0.45966E-02
  0.14741E-01
  0.13557E-01
  0.14749E-01
  0.14346E-01
 -0.27700E-01
  0.46973E-02
 -0.82035E-04
 -0.32364E-01
 -0.25795E-01
  0.15449E-01
  0.15295E-01
  0.15166E-01
  0.13360E-01
 -0.66965E-02
  0.23784E-02
  0.23674E-01
  0.24520E-01
  0.13102E-02
  0.16859E-01
  0.12853E-01
 -0.23812E-01
  0.33343E-02
  0.22977E-02
  0.10326E-02
 -0.68798E-03
  0.12915E-03
  0.27152E-02
  0.76502E-02
  0.84648E-02
  0.73325E-02
  0.87565E-02
  0.93167E-02
  0.14517E-01
  0.16151E-01
  0.17790E-01
  0.17689E-01
 -0.60072E-02
 -0.10502E-01
 -0.12399E-01
  0.47463E-02
  0.46916E-02
  0.44082E-02
  0.52550E-02
  0.15406E-01
  0.45110E-02
 -0.22978E-01
 -0.83179E-02
 -0.94191E-02
 -0.16176E-01
 -0.13545E-01
  0.13590E-01
  0.13295E-01
  0.13084E-01
  0.13204E-01
  0.12927E-01
  0.13149E-01
  0.16404E-01
 -0.15063E-02
  0.75354E-03
  0.15179E-01
  0.15168E-01
  0.78017E-02
  0.14477E-02
  0.29921E-02
  0.15369E-01
  0.96806E-02
  0.11016E-01
 -0.98681E-02
  0.19907E-02
 -0.88058E-02
 -0.16251E-01
  0.15605E-01
 -0.37964E-02
  0.53290E-02
  0.52386E-02
  0.60953E-02
  0.64750E-02
 -0.29988E-02
  0.55441E-02
  0.13981E-01
  0.13985E-01
  0.15511E-02
  0.76713E-02
  0.17002E-01
 -0.67850E-02
  0.18469E-01
  0.19866E-01
 -0.14849E-01
  0.13613E-01
  0.14459E-01
  0.14688E-01
  0.14922E-01
  0.49802E-02
  0.15691E-01
  0.42360E-02
  0.13469E-01
  0.12818E-01
  0.12735E-01
 -0.15968E-01
 -0.21703E-01
  0.52536E-03
 -0.74366E-03
  0.22980E-02
  0.55222E-02
  0.60361E-02
 -0.69403E-03
  0.79265E-02
  0.90698E-02
  0.17353E-01
  0.66049E-02
  0.63246E-02
  0.11346E-01
  0.11031E-01
  0.12005E-01
  0.12251E-01
  0.12863E-01
  0.52542E-02
  0.89194E-02
  0.61124E-02
  0.62113E-02
  0.71716E-02
  0.43893E-02
  0.43081E-02
 -0.47718E-02
 -0.65981E-02
  0.74514E-02
  0.66222E-02
  0.80021E-02
  0.88008E-02
  0.92967E-02
  0.46949E-03
  0.11270E-01
  0.84740E-02
  0.13058E-01
  0.13166E-01
  0.19441E-01
 -0.97004E-02
  0.50259E-02
  0.43366E-02
  0.15588E-01
 -0.12499E-01
  0.54097E-02
  0.63956E-02
  0.68722E-02
  0.66166E-02
  0.66805E-02
  0.61298E-02
  0.60719E-02
  0.59218E-02
 -0.62846E-01
 -0.39851E-02
  0.55883E-02
  0.15588E-01
  0.15279E-01
  0.15781E-01
  0.86470E-02
  0.54820E-02
  0.39858E-02
  0.15526E-01
  0.13508E-01
  0.87392E-02
  0.88114E-02
  0.81621E-02
 -0.32714E-02
 -0.57519E-02
 -0.77142E-02
 -0.40361E-02
  0.18504E-01
 -0.86482E-02
 -0.87569E-02
 -0.36660E-02
 -0.36391E-02
 -0.36462E-02
  0.43125E-02
  0.56801E-02
 -0.29451E-02
 -0.21575E-02
 -0.25268E-02
  0.73759E-02
  0.64927E-02
  0.75584E-02
  0.66294E-02
  0.14370E-01
  0.50822E-03
  0.69859E-02
  0.17316E-01
  0.43111E-02
  0.53274E-02
  0.15512E-02
 -0.73542E-03
 -0.12180E-02
 -0.12465E-02
 -0.19188E-02
  0.50838E-02
  0.49217E-02
  0.45909E-02
  0.30281E-02
  0.41171E-02
  0.56077E-02
  0.60602E-02
  0.78926E-02
  0.38663E-02
  0.33054E-02
 -0.23830E-01
  0.37909E-02
  0.36948E-02
  0.11305E-01
  0.72220E-02
 -0.16637E-02
 -0.25042E-03
  0.51667E-02
 -0.10492E-01
 -0.33960E-02
  0.46891E-02
  0.58968E-02
 -0.29400E-03
 -0.39997E-02
  0.11647E-03
  0.70449E-02
 -0.77525E-02
 -0.82887E-02
 -0.55821E-04
  0.43061E-02
 -0.26007E-02
  0.98135E-02
 -0.81523E-02
  0.51115E-02
 -0.50170E-02
 -0.78727E-02
 -0.41286E-02
  0.57907E-02
 -0.58355E-02
 -0.12325E-01
 -0.52599E-02
  0.73138E-02
 -0.70481E-03
 -0.68283E-02
 -0.24426E-01
  0.72432E-02
  0.74304E-02
  0.11389E-01
  0.28571E-02
  0.35236E-02
 -0.10841E-01
 -0.11597E-02
  0.52399E-02
  0.45735E-02
 -0.47827E-02
  0.15350E-02
  0.78528E-02
  0.55344E-02
 -0.13234E-02
 -0.25325E-01
 -0.22903E-01
  0.44418E-02
 -0.30493E-02
  0.54088E-02
  0.47227E-02
 -0.74579E-02
  0.30292E-02
 -0.45695E-02
 -0.16666E-01
  0.70374E-02
 -0.18338E-02
  0.15200E-01
 -0.30331E-04
 -0.24396E-01
  0.12247E-01
 -0.36839E-02
  0.48528E-02
  0.46792E-02
  0.84500E-02
 -0.57151E-02
  0.48631E-02
  0.15612E-01
 -0.63642E-02
  0.18752E-01
  0.86437E-02
  0.23786E-01
  0.18899E-01
  0.78871E-02
  0.17292E-01
 -0.22290E-01
 -0.23824E-01
  0.93910E-02
  0.12347E-01
  0.75626E-02
  0.16736E-01
 -0.63030E-02
  0.65668E-02
 -0.36272E-01
 -0.45445E-01
 -0.10744E-01
  0.12458E-01
 -0.87961E-02
 -0.48397E-01
 -0.82324E-02
  0.12980E-02
  0.40046E-02
 -0.46305E-01
 -0.46789E-01