# vtk DataFile Version 2.0
Unstructured Grid UFVM-ECOMOD
ASCII
DATASET UNSTRUCTURED_GRID
 POINTS         2086  float
  0.00000E+00  0.00000E+00  0.00000E+00
  0.40000E+01  0.00000E+00  0.00000E+00
  0.40000E+01  0.20000E+01  0.00000E+00
  0.00000E+00  0.20000E+01  0.00000E+00
  0.11787E+01  0.12812E+01  0.00000E+00
  0.11720E+01  0.12579E+01  0.00000E+00
  0.11523E+01  0.12361E+01  0.00000E+00
  0.11208E+01  0.12171E+01  0.00000E+00
  0.10795E+01  0.12021E+01  0.00000E+00
  0.10311E+01  0.11921E+01  0.00000E+00
  0.97842E+00  0.11877E+01  0.00000E+00
  0.92495E+00  0.11892E+01  0.00000E+00
  0.87399E+00  0.11964E+01  0.00000E+00
  0.82875E+00  0.12090E+01  0.00000E+00
  0.79207E+00  0.12262E+01  0.00000E+00
  0.76626E+00  0.12467E+01  0.00000E+00
  0.75294E+00  0.12695E+01  0.00000E+00
  0.75294E+00  0.12930E+01  0.00000E+00
  0.76626E+00  0.13158E+01  0.00000E+00
  0.79207E+00  0.13363E+01  0.00000E+00
  0.82875E+00  0.13535E+01  0.00000E+00
  0.87399E+00  0.13661E+01  0.00000E+00
  0.92495E+00  0.13733E+01  0.00000E+00
  0.97842E+00  0.13748E+01  0.00000E+00
  0.10311E+01  0.13704E+01  0.00000E+00
  0.10795E+01  0.13604E+01  0.00000E+00
  0.11208E+01  0.13454E+01  0.00000E+00
  0.11523E+01  0.13264E+01  0.00000E+00
  0.11720E+01  0.13046E+01  0.00000E+00
  0.11275E+01  0.10550E+01  0.00000E+00
  0.11246E+01  0.10357E+01  0.00000E+00
  0.11162E+01  0.10177E+01  0.00000E+00
  0.11028E+01  0.10019E+01  0.00000E+00
  0.10851E+01  0.98956E+00  0.00000E+00
  0.10644E+01  0.98129E+00  0.00000E+00
  0.10420E+01  0.97765E+00  0.00000E+00
  0.10192E+01  0.97887E+00  0.00000E+00
  0.99740E+00  0.98488E+00  0.00000E+00
  0.97809E+00  0.99529E+00  0.00000E+00
  0.96243E+00  0.10094E+01  0.00000E+00
  0.95141E+00  0.10265E+01  0.00000E+00
  0.94572E+00  0.10453E+01  0.00000E+00
  0.94572E+00  0.10647E+01  0.00000E+00
  0.95141E+00  0.10835E+01  0.00000E+00
  0.96243E+00  0.11005E+01  0.00000E+00
  0.97809E+00  0.11147E+01  0.00000E+00
  0.99740E+00  0.11251E+01  0.00000E+00
  0.10192E+01  0.11311E+01  0.00000E+00
  0.10420E+01  0.11323E+01  0.00000E+00
  0.10644E+01  0.11287E+01  0.00000E+00
  0.10851E+01  0.11204E+01  0.00000E+00
  0.11028E+01  0.11080E+01  0.00000E+00
  0.11162E+01  0.10923E+01  0.00000E+00
  0.11246E+01  0.10743E+01  0.00000E+00
  0.62875E+00  0.11344E+01  0.00000E+00
  0.62759E+00  0.10960E+01  0.00000E+00
  0.62419E+00  0.10600E+01  0.00000E+00
  0.61876E+00  0.10287E+01  0.00000E+00
  0.61163E+00  0.10040E+01  0.00000E+00
  0.60327E+00  0.98756E+00  0.00000E+00
  0.59419E+00  0.98030E+00  0.00000E+00
  0.58497E+00  0.98273E+00  0.00000E+00
  0.57617E+00  0.99469E+00  0.00000E+00
  0.56837E+00  0.10154E+01  0.00000E+00
  0.56204E+00  0.10436E+01  0.00000E+00
  0.55759E+00  0.10776E+01  0.00000E+00
  0.55529E+00  0.11150E+01  0.00000E+00
  0.55529E+00  0.11537E+01  0.00000E+00
  0.55759E+00  0.11912E+01  0.00000E+00
  0.56204E+00  0.12251E+01  0.00000E+00
  0.56837E+00  0.12533E+01  0.00000E+00
  0.57617E+00  0.12741E+01  0.00000E+00
  0.58497E+00  0.12860E+01  0.00000E+00
  0.59419E+00  0.12885E+01  0.00000E+00
  0.60327E+00  0.12812E+01  0.00000E+00
  0.61163E+00  0.12647E+01  0.00000E+00
  0.61876E+00  0.12401E+01  0.00000E+00
  0.62419E+00  0.12087E+01  0.00000E+00
  0.62759E+00  0.11728E+01  0.00000E+00
  0.10000E+00  0.00000E+00  0.00000E+00
  0.20000E+00  0.00000E+00  0.00000E+00
  0.30000E+00  0.00000E+00  0.00000E+00
  0.40000E+00  0.00000E+00  0.00000E+00
  0.50000E+00  0.00000E+00  0.00000E+00
  0.60000E+00  0.00000E+00  0.00000E+00
  0.70000E+00  0.00000E+00  0.00000E+00
  0.80000E+00  0.00000E+00  0.00000E+00
  0.90000E+00  0.00000E+00  0.00000E+00
  0.10000E+01  0.00000E+00  0.00000E+00
  0.11000E+01  0.00000E+00  0.00000E+00
  0.12000E+01  0.00000E+00  0.00000E+00
  0.13000E+01  0.00000E+00  0.00000E+00
  0.14000E+01  0.00000E+00  0.00000E+00
  0.15000E+01  0.00000E+00  0.00000E+00
  0.16000E+01  0.00000E+00  0.00000E+00
  0.17000E+01  0.00000E+00  0.00000E+00
  0.18000E+01  0.00000E+00  0.00000E+00
  0.19000E+01  0.00000E+00  0.00000E+00
  0.20000E+01  0.00000E+00  0.00000E+00
  0.21000E+01  0.00000E+00  0.00000E+00
  0.22000E+01  0.00000E+00  0.00000E+00
  0.23000E+01  0.00000E+00  0.00000E+00
  0.24000E+01  0.00000E+00  0.00000E+00
  0.25000E+01  0.00000E+00  0.00000E+00
  0.26000E+01  0.00000E+00  0.00000E+00
  0.27000E+01  0.00000E+00  0.00000E+00
  0.28000E+01  0.00000E+00  0.00000E+00
  0.29000E+01  0.00000E+00  0.00000E+00
  0.30000E+01  0.00000E+00  0.00000E+00
  0.31000E+01  0.00000E+00  0.00000E+00
  0.32000E+01  0.00000E+00  0.00000E+00
  0.33000E+01  0.00000E+00  0.00000E+00
  0.34000E+01  0.00000E+00  0.00000E+00
  0.35000E+01  0.00000E+00  0.00000E+00
  0.36000E+01  0.00000E+00  0.00000E+00
  0.37000E+01  0.00000E+00  0.00000E+00
  0.38000E+01  0.00000E+00  0.00000E+00
  0.39000E+01  0.00000E+00  0.00000E+00
  0.40000E+01  0.10000E+00  0.00000E+00
  0.40000E+01  0.20000E+00  0.00000E+00
  0.40000E+01  0.30000E+00  0.00000E+00
  0.40000E+01  0.40000E+00  0.00000E+00
  0.40000E+01  0.50000E+00  0.00000E+00
  0.40000E+01  0.60000E+00  0.00000E+00
  0.40000E+01  0.70000E+00  0.00000E+00
  0.40000E+01  0.80000E+00  0.00000E+00
  0.40000E+01  0.90000E+00  0.00000E+00
  0.40000E+01  0.10000E+01  0.00000E+00
  0.40000E+01  0.11000E+01  0.00000E+00
  0.40000E+01  0.12000E+01  0.00000E+00
  0.40000E+01  0.13000E+01  0.00000E+00
  0.40000E+01  0.14000E+01  0.00000E+00
  0.40000E+01  0.15000E+01  0.00000E+00
  0.40000E+01  0.16000E+01  0.00000E+00
  0.40000E+01  0.17000E+01  0.00000E+00
  0.40000E+01  0.18000E+01  0.00000E+00
  0.40000E+01  0.19000E+01  0.00000E+00
  0.39000E+01  0.20000E+01  0.00000E+00
  0.38000E+01  0.20000E+01  0.00000E+00
  0.37000E+01  0.20000E+01  0.00000E+00
  0.36000E+01  0.20000E+01  0.00000E+00
  0.35000E+01  0.20000E+01  0.00000E+00
  0.34000E+01  0.20000E+01  0.00000E+00
  0.33000E+01  0.20000E+01  0.00000E+00
  0.32000E+01  0.20000E+01  0.00000E+00
  0.31000E+01  0.20000E+01  0.00000E+00
  0.30000E+01  0.20000E+01  0.00000E+00
  0.29000E+01  0.20000E+01  0.00000E+00
  0.28000E+01  0.20000E+01  0.00000E+00
  0.27000E+01  0.20000E+01  0.00000E+00
  0.26000E+01  0.20000E+01  0.00000E+00
  0.25000E+01  0.20000E+01  0.00000E+00
  0.24000E+01  0.20000E+01  0.00000E+00
  0.23000E+01  0.20000E+01  0.00000E+00
  0.22000E+01  0.20000E+01  0.00000E+00
  0.21000E+01  0.20000E+01  0.00000E+00
  0.20000E+01  0.20000E+01  0.00000E+00
  0.19000E+01  0.20000E+01  0.00000E+00
  0.18000E+01  0.20000E+01  0.00000E+00
  0.17000E+01  0.20000E+01  0.00000E+00
  0.16000E+01  0.20000E+01  0.00000E+00
  0.15000E+01  0.20000E+01  0.00000E+00
  0.14000E+01  0.20000E+01  0.00000E+00
  0.13000E+01  0.20000E+01  0.00000E+00
  0.12000E+01  0.20000E+01  0.00000E+00
  0.11000E+01  0.20000E+01  0.00000E+00
  0.10000E+01  0.20000E+01  0.00000E+00
  0.90000E+00  0.20000E+01  0.00000E+00
  0.80000E+00  0.20000E+01  0.00000E+00
  0.70000E+00  0.20000E+01  0.00000E+00
  0.60000E+00  0.20000E+01  0.00000E+00
  0.50000E+00  0.20000E+01  0.00000E+00
  0.40000E+00  0.20000E+01  0.00000E+00
  0.30000E+00  0.20000E+01  0.00000E+00
  0.20000E+00  0.20000E+01  0.00000E+00
  0.10000E+00  0.20000E+01  0.00000E+00
  0.00000E+00  0.19000E+01  0.00000E+00
  0.00000E+00  0.18000E+01  0.00000E+00
  0.00000E+00  0.17000E+01  0.00000E+00
  0.00000E+00  0.16000E+01  0.00000E+00
  0.00000E+00  0.15000E+01  0.00000E+00
  0.00000E+00  0.14000E+01  0.00000E+00
  0.00000E+00  0.13000E+01  0.00000E+00
  0.00000E+00  0.12000E+01  0.00000E+00
  0.00000E+00  0.11000E+01  0.00000E+00
  0.00000E+00  0.10000E+01  0.00000E+00
  0.00000E+00  0.90000E+00  0.00000E+00
  0.00000E+00  0.80000E+00  0.00000E+00
  0.00000E+00  0.70000E+00  0.00000E+00
  0.00000E+00  0.60000E+00  0.00000E+00
  0.00000E+00  0.50000E+00  0.00000E+00
  0.00000E+00  0.40000E+00  0.00000E+00
  0.00000E+00  0.30000E+00  0.00000E+00
  0.00000E+00  0.20000E+00  0.00000E+00
  0.00000E+00  0.10000E+00  0.00000E+00
  0.11961E+01  0.12633E+01  0.00000E+00
  0.21488E+01  0.93320E-01  0.00000E+00
  0.61866E+00  0.98978E+00  0.00000E+00
  0.20489E+01  0.19184E+01  0.00000E+00
  0.25498E+01  0.19136E+01  0.00000E+00
  0.29499E+01  0.86560E-01  0.00000E+00
  0.93236E+00  0.10310E+01  0.00000E+00
  0.17510E+01  0.72450E-01  0.00000E+00
  0.29467E+01  0.19168E+01  0.00000E+00
  0.25487E+01  0.85720E-01  0.00000E+00
  0.76221E+00  0.13471E+01  0.00000E+00
  0.39134E+01  0.10499E+01  0.00000E+00
  0.11777E+01  0.13352E+01  0.00000E+00
  0.75033E+00  0.75620E-01  0.00000E+00
  0.13476E+01  0.80200E-01  0.00000E+00
  0.10427E+01  0.86980E-01  0.00000E+00
  0.16534E+01  0.19146E+01  0.00000E+00
  0.33491E+01  0.86080E-01  0.00000E+00
  0.76560E-01  0.54986E+00  0.00000E+00
  0.33536E+01  0.19187E+01  0.00000E+00
  0.64251E+00  0.10384E+01  0.00000E+00
  0.54363E+00  0.10247E+01  0.00000E+00
  0.39158E+01  0.64933E+00  0.00000E+00
  0.53844E+00  0.12429E+01  0.00000E+00
  0.11152E+01  0.13830E+01  0.00000E+00
  0.39057E+01  0.13553E+01  0.00000E+00
  0.45348E+00  0.19192E+01  0.00000E+00
  0.84329E+00  0.13986E+01  0.00000E+00
  0.10069E+01  0.14153E+01  0.00000E+00
  0.79140E-01  0.15509E+01  0.00000E+00
  0.51664E+00  0.11388E+01  0.00000E+00
  0.13387E+01  0.19132E+01  0.00000E+00
  0.61809E+00  0.12788E+01  0.00000E+00
  0.44149E+00  0.86000E-01  0.00000E+00
  0.82010E-01  0.85167E+00  0.00000E+00
  0.79235E+00  0.11912E+01  0.00000E+00
  0.73934E+00  0.19100E+01  0.00000E+00
  0.97720E-01  0.12541E+01  0.00000E+00
  0.36625E+01  0.99060E-01  0.00000E+00
  0.36500E+01  0.19142E+01  0.00000E+00
  0.10534E+01  0.19002E+01  0.00000E+00
  0.93232E+00  0.10799E+01  0.00000E+00
  0.73234E+00  0.12821E+01  0.00000E+00
  0.11221E+01  0.11125E+01  0.00000E+00
  0.38972E+01  0.16498E+01  0.00000E+00
  0.39125E+01  0.34987E+00  0.00000E+00
  0.91360E-01  0.10554E+01  0.00000E+00
  0.66195E+00  0.11154E+01  0.00000E+00
  0.82340E-01  0.34870E+00  0.00000E+00
  0.18502E+01  0.19156E+01  0.00000E+00
  0.15459E+01  0.76350E-01  0.00000E+00
  0.19483E+01  0.85500E-01  0.00000E+00
[...]
 POINT_DATA         2086
  
 SCALARS WL      float 1
 LOOKUP_TABLE default
  0.11308E-01
  0.11444E-02
  0.40902E-02
  0.22792E-01
 -0.29846E-01
 -0.30977E-01
 -0.20159E-01
 -0.11834E-01
 -0.13090E-01
 -0.13772E-01
 -0.13514E-01
 -0.13855E-01
 -0.14015E-01
 -0.13375E-01
 -0.12897E-01
 -0.12643E-01
 -0.13711E-01
 -0.11855E-01
 -0.50491E-02
 -0.26022E-02
 -0.81267E-02
 -0.22384E-01
 -0.36633E-01
 -0.50079E-01
 -0.51947E-01
 -0.42255E-01
 -0.31143E-01
 -0.26844E-01
 -0.26406E-01
 -0.18475E-01
 -0.17426E-01
 -0.17839E-01
 -0.19147E-01
 -0.20369E-01
 -0.20628E-01
 -0.21139E-01
 -0.22187E-01
 -0.22811E-01
 -0.21730E-01
 -0.19620E-01
 -0.18184E-01
 -0.17142E-01
 -0.16075E-01
 -0.15192E-01
 -0.14537E-01
 -0.14032E-01
 -0.13724E-01
 -0.13757E-01
 -0.14170E-01
 -0.14933E-01
 -0.15596E-01
 -0.15695E-01
 -0.18015E-01
 -0.19102E-01
 -0.12108E-01
 -0.12763E-01
 -0.12956E-01
 -0.12672E-01
 -0.12451E-01
 -0.12548E-01
 -0.13074E-01
 -0.62121E-02
  0.10405E-01
  0.26007E-01
  0.35823E-01
  0.41163E-01
  0.43678E-01
  0.44186E-01
  0.42813E-01
  0.38567E-01
  0.29147E-01
  0.12290E-01
 -0.51035E-02
 -0.11926E-01
 -0.11685E-01
 -0.12052E-01
 -0.11827E-01
 -0.11064E-01
 -0.11368E-01
  0.11209E-01
  0.10947E-01
  0.10473E-01
  0.98842E-02
  0.92875E-02
  0.86509E-02
  0.82071E-02
  0.78382E-02
  0.76705E-02
  0.74370E-02
  0.70753E-02
  0.65704E-02
  0.61201E-02
  0.57547E-02
  0.56083E-02
  0.55563E-02
  0.56412E-02
  0.57298E-02
  0.58595E-02
  0.59842E-02
  0.62069E-02
  0.65143E-02
  0.69033E-02
  0.74618E-02
  0.80526E-02
  0.86551E-02
  0.91998E-02
  0.96038E-02
  0.98712E-02
  0.99905E-02
  0.98813E-02
  0.97404E-02
  0.95157E-02
  0.90422E-02
  0.83840E-02
  0.74283E-02
  0.61252E-02
  0.45478E-02
  0.25074E-02
  0.00000E+00
  0.00000E+00
  0.00000E+00
  0.00000E+00
  0.00000E+00
  0.00000E+00
  0.00000E+00
  0.00000E+00
  0.00000E+00
  0.00000E+00
  0.00000E+00
  0.00000E+00
  0.00000E+00
  0.00000E+00
  0.00000E+00
  0.00000E+00
  0.00000E+00
  0.00000E+00
  0.00000E+00
  0.53248E-02
  0.71110E-02
  0.85869E-02
  0.10065E-01
  0.11293E-01
  0.11440E-01
  0.99854E-02
  0.77312E-02
  0.60422E-02
  0.48179E-02
  0.43252E-02
  0.43914E-02
  0.48465E-02
  0.55109E-02
  0.61089E-02
  0.60588E-02
  0.55462E-02
  0.44183E-02
  0.38587E-02
  0.34442E-02
  0.29408E-02
  0.22830E-02
  0.13528E-02
  0.62801E-04
 -0.17399E-02
 -0.43881E-02
 -0.73018E-02
 -0.93959E-02
 -0.96011E-02
 -0.72089E-02
 -0.29047E-02
  0.19228E-02
  0.65697E-02
  0.10953E-01
  0.14673E-01
  0.17695E-01
  0.20101E-01
  0.21767E-01
  0.22603E-01
  0.22929E-01
  0.23326E-01
  0.23947E-01
  0.24752E-01
  0.25683E-01
  0.26567E-01
  0.27207E-01
  0.27382E-01
  0.26896E-01
  0.25642E-01
  0.23818E-01
  0.21672E-01
  0.19399E-01
  0.17383E-01
  0.15560E-01
  0.14002E-01
  0.12852E-01
  0.12010E-01
  0.11514E-01
 -0.29737E-01
  0.63843E-02
 -0.12396E-01
  0.36841E-02
  0.56206E-02
  0.98476E-02
 -0.17624E-01
  0.56864E-02
  0.42620E-02
  0.83142E-02
 -0.38118E-02
 -0.35433E-02
 -0.25952E-01
  0.79605E-02
  0.57322E-02
  0.70200E-02
  0.69321E-03
  0.92039E-02
  0.16515E-01
  0.10601E-01
 -0.12814E-01
  0.32317E-01
  0.35034E-03
  0.35691E-01
 -0.35253E-01
 -0.34881E-02
  0.16218E-01
 -0.13179E-01
 -0.50069E-01
  0.25352E-01
  0.43421E-01
 -0.63513E-02
 -0.11640E-01
  0.97399E-02
  0.23079E-01
 -0.13154E-01
  0.45464E-02
  0.27997E-01
  0.65028E-02
  0.90142E-02
 -0.93763E-02
 -0.15498E-01
 -0.14031E-01
 -0.16406E-01
  0.24234E-02
  0.14105E-02
  0.27012E-01
 -0.12652E-01
  0.13367E-01
  0.25520E-02
  0.54928E-02
  0.59692E-02
  0.50008E-02
  0.72195E-02
  0.66762E-02
  0.43489E-02
  0.93374E-02
  0.97687E-02
 -0.12861E-02
  0.23632E-01
 -0.11517E-01
 -0.15546E-01
  0.10836E-01
 -0.12507E-01
 -0.26280E-01
 -0.27832E-01
 -0.24895E-01
 -0.28185E-01
 -0.23545E-01
 -0.29170E-01
 -0.24839E-01
 -0.31037E-01
 -0.34842E-01
 -0.37170E-01
 -0.39779E-01
 -0.42276E-01
 -0.44007E-01
 -0.46305E-01
 -0.46962E-01
 -0.48580E-01
 -0.47228E-01
 -0.47343E-01
 -0.42719E-01
 -0.41221E-01
 -0.33543E-01
 -0.31032E-01
 -0.22316E-01
 -0.19515E-01
 -0.25635E-01
 -0.15351E-01
 -0.46541E-01
 -0.27423E-01
 -0.11443E-01
 -0.19177E-01
 -0.11479E-01
 -0.13643E-01
 -0.89900E-02
 -0.10304E-01
 -0.81284E-02
 -0.58260E-02
 -0.66666E-02
 -0.85337E-02
 -0.84669E-02
 -0.37166E-02
 -0.12410E-01
 -0.29070E-02
 -0.27034E-02
  0.52477E-02
  0.54377E-02
  0.10359E-01
  0.86377E-02
 -0.97991E-02
 -0.11087E-01
 -0.17977E-01
 -0.11963E-01
 -0.13627E-01
  0.10233E-01
  0.72230E-02
 -0.14138E-01
 -0.14127E-01
 -0.12618E-01
 -0.11546E-01
 -0.13119E-01
 -0.94476E-02
 -0.68023E-02
 -0.50094E-02
 -0.75292E-02
 -0.41526E-02
 -0.68262E-02
 -0.45075E-02
 -0.97736E-02
 -0.77349E-02
 -0.63980E-02
  0.77743E-02
  0.44381E-02
 -0.24947E-02
 -0.49025E-02
 -0.99132E-02
 -0.84288E-02
 -0.14237E-01
 -0.11916E-01
 -0.21325E-02
 -0.17341E-01
 -0.13201E-01
 -0.17571E-01
 -0.11998E-01
 -0.79990E-02
 -0.65674E-02
 -0.90219E-02
 -0.34451E-02
  0.52573E-02
  0.75294E-02
  0.23364E-02
 -0.43416E-02
 -0.59697E-02
 -0.21354E-02
 -0.22845E-01
 -0.25290E-01
 -0.21182E-01
 -0.21561E-01
  0.72736E-03
 -0.18907E-01
 -0.66506E-03
 -0.28504E-02
 -0.30795E-02
 -0.55488E-02
 -0.46558E-02
 -0.70791E-02
 -0.22099E-01
 -0.54928E-02
 -0.21028E-01
 -0.76388E-02
 -0.55621E-02
 -0.73549E-02
 -0.49901E-02
 -0.66017E-02
 -0.40784E-02
 -0.53081E-02
 -0.27850E-02
 -0.37178E-02
 -0.12517E-02
 -0.18426E-02
  0.50127E-03
  0.72869E-04
 -0.23039E-02
 -0.19974E-03
 -0.26293E-02
 -0.36371E-03
  0.18418E-02
  0.19887E-02
  0.39226E-02
  0.44153E-02
  0.61207E-02
  0.69736E-02
 -0.29118E-02
  0.84115E-02
  0.74288E-02
  0.94538E-02
 -0.20425E-01
  0.96128E-02
 -0.51601E-02
 -0.56373E-02
 -0.17944E-01
 -0.16563E-01
  0.50365E-02
 -0.36292E-02
  0.95814E-03
 -0.28225E-02
  0.88033E-03
 -0.66477E-03
  0.13278E-02
 -0.87382E-02
 -0.13378E-01
 -0.41770E-01
 -0.19467E-01
 -0.78312E-02
 -0.85641E-02
  0.19485E-02
  0.36698E-02
  0.33852E-02
  0.83617E-02
  0.10179E-01
 -0.14808E-01
 -0.12761E-01
 -0.14513E-01
 -0.10545E-01
 -0.11554E-01
  0.40708E-02
 -0.10717E-01
 -0.11428E-01
 -0.93632E-02
 -0.11957E-01
 -0.10109E-01
 -0.12395E-01
 -0.11024E-01
 -0.13266E-01
 -0.13356E-01
  0.38771E-02
  0.23496E-02
  0.52560E-02
 -0.63688E-02
 -0.80164E-02
 -0.84039E-02
 -0.13810E-01
 -0.13726E-01
  0.90534E-02
  0.10556E-01
  0.11827E-01
 -0.40527E-01
 -0.12265E-01
  0.50598E-02
 -0.94665E-02
 -0.53781E-02
 -0.55698E-02
  0.61685E-02
  0.11840E-01
  0.94479E-02
 -0.98808E-02
 -0.32800E-02
 -0.33128E-02
 -0.14137E-01
 -0.13924E-01
 -0.14242E-01
 -0.15662E-01
 -0.12896E-01
 -0.18604E-01
  0.95423E-02
  0.56207E-02
  0.65918E-02
  0.70573E-02
 -0.16098E-01
 -0.21364E-01
  0.13283E-01
 -0.13590E-01
 -0.13762E-01
 -0.14106E-01
 -0.13934E-01
 -0.15160E-02
 -0.16811E-02
  0.80923E-02
 -0.82602E-02
 -0.91688E-02
 -0.14241E-01
 -0.10018E-01
 -0.12917E-01
 -0.56970E-02
  0.57354E-02
  0.45873E-02
 -0.14662E-01
 -0.15255E-01
  0.12868E-01
  0.67019E-02
 -0.60364E-02
 -0.69272E-02
 -0.99981E-02
 -0.78038E-02
 -0.41249E-02
 -0.44343E-02
 -0.82494E-03
 -0.50951E-03
  0.29627E-02
  0.42207E-02
  0.72888E-02
  0.98832E-02
  0.11810E-01
  0.15333E-01
  0.15769E-01
  0.19647E-01
  0.18701E-01
  0.22467E-01
  0.20793E-01
  0.23869E-01
  0.22043E-01
 -0.10783E-01
  0.26175E-01
  0.26630E-01
  0.29392E-01
  0.19365E-01
  0.20440E-01
 -0.17936E-03
 -0.48517E-03
 -0.28865E-01
 -0.34933E-02
  0.62224E-03
 -0.87343E-04
  0.29761E-02
  0.27686E-02
  0.47871E-02
  0.48260E-02
  0.47858E-02
  0.59997E-02
  0.58943E-02
  0.66877E-02
  0.65508E-02
  0.27844E-02
  0.50388E-02
  0.32558E-02
  0.54643E-02
  0.62670E-02
  0.64765E-02
  0.41202E-02
  0.67601E-02
  0.67282E-02
  0.70541E-02
  0.69535E-02
  0.66095E-02
  0.66118E-02
 -0.14586E-01
 -0.10214E-01
 -0.62597E-02
 -0.92771E-02
 -0.50074E-02
 -0.65077E-02
 -0.25563E-02
 -0.23557E-02
 -0.22620E-03
 -0.13668E-02
  0.49544E-03
 -0.20832E-02
 -0.21760E-03
 -0.27911E-02
 -0.76872E-02
  0.65931E-02
  0.63140E-02
  0.63425E-02
  0.68011E-02
 -0.43043E-02
  0.87216E-02
  0.74351E-02
 -0.28500E-02
 -0.48420E-02
 -0.43298E-02
  0.24070E-02
 -0.88206E-02
  0.56293E-02
  0.70970E-02
 -0.19132E-01
 -0.12143E-01
 -0.15033E-01
  0.71702E-03
  0.44096E-03
  0.54541E-02
 -0.14040E-01
 -0.14237E-01
 -0.13748E-01
 -0.43882E-01
 -0.16734E-02
 -0.36796E-02
  0.11621E-01
  0.12403E-01
 -0.17638E-01
 -0.21315E-01
  0.20158E-01
 -0.27371E-02
 -0.77321E-02
  0.22623E-01
  0.20856E-01
  0.14604E-01
  0.28739E-01
  0.31530E-01
 -0.11782E-01
 -0.13487E-01
  0.65622E-02
  0.60590E-02
  0.66096E-02
  0.71838E-02
  0.70915E-02
  0.63699E-02
  0.69738E-02
  0.66353E-02
  0.75367E-02
 -0.61445E-03
 -0.39097E-01
  0.60326E-02
  0.68093E-02
  0.76169E-02
  0.75722E-02
 -0.15287E-01
 -0.16397E-01
 -0.70278E-02
 -0.52942E-02
 -0.30145E-02
  0.72833E-02
  0.15151E-02
  0.10674E-02
 -0.70259E-03
 -0.33271E-03
  0.17781E-02
  0.88206E-04
  0.25546E-02
  0.86103E-03
 -0.30029E-02
 -0.17427E-02
  0.16295E-02
 -0.10818E-02
  0.18651E-02
 -0.13581E-02
 -0.14232E-01
 -0.17381E-01
  0.69857E-02
  0.55271E-02
  0.13354E-02
 -0.26086E-02
  0.92370E-02
 -0.14469E-01
  0.21410E-02
  0.15607E-03
 -0.43586E-02
 -0.13800E-01
  0.76084E-02
 -0.69305E-02
 -0.16119E-01
 -0.19150E-01
 -0.17386E-01
 -0.19918E-01
 -0.17946E-01
 -0.19742E-01
 -0.18108E-01
 -0.19520E-01
 -0.18235E-01
 -0.20083E-01
 -0.18368E-01
 -0.20721E-01
 -0.59261E-02
  0.46554E-02
 -0.17998E-01
 -0.20299E-01
 -0.16351E-01
 -0.18196E-01
 -0.13128E-01
 -0.15062E-01
 -0.19636E-01
 -0.17074E-01
 -0.20501E-01
 -0.18942E-01
 -0.21704E-01
 -0.22228E-01
 -0.24321E-01
 -0.18367E-01
 -0.14435E-01
 -0.78797E-02
 -0.10702E-01
 -0.62974E-02
  0.64120E-02
 -0.32384E-02
  0.80735E-02
  0.69898E-02
  0.92406E-02
 -0.14176E-01
 -0.14371E-01
 -0.19941E-01
 -0.27046E-01
 -0.28024E-01
  0.54372E-02
 -0.11921E-01
 -0.12068E-01
 -0.37276E-02
 -0.24534E-01
 -0.27467E-01
 -0.23692E-01
 -0.25864E-01
 -0.14100E-01
 -0.30166E-02
  0.74792E-02
  0.29979E-01
  0.32504E-01
  0.27798E-01
  0.15698E-01
  0.75413E-03
  0.27945E-02
 -0.35422E-02
 -0.32054E-01
 -0.10193E-01
  0.97295E-03
 -0.20751E-02
  0.12923E-02
 -0.27171E-01
 -0.22929E-01
 -0.26780E-01
  0.42645E-02
 -0.16247E-01
 -0.17904E-01
  0.13353E-01
  0.52146E-02
  0.45063E-02
 -0.18414E-01
 -0.17625E-01
 -0.21885E-01
 -0.14986E-01
 -0.18542E-01
 -0.10954E-01
 -0.90001E-02
 -0.50710E-02
 -0.62220E-02
 -0.11898E-02
 -0.19551E-02
  0.24154E-02
  0.17932E-02
  0.57496E-02
  0.48208E-02
  0.90315E-02
  0.88816E-02
  0.12603E-01
  0.13076E-01
  0.16294E-01
  0.17396E-01
  0.19935E-01
  0.21831E-01
  0.18433E-01
  0.83518E-02
  0.23009E-01
  0.25299E-01
  0.92641E-02
  0.25399E-01
  0.27740E-01
  0.20202E-01
  0.28650E-02
  0.28737E-01
  0.30202E-01
  0.28806E-01
  0.23432E-01
  0.32062E-01
  0.32383E-01
  0.87913E-03
  0.25226E-01
  0.23500E-01
  0.35321E-01
 -0.16307E-01
  0.11283E-01
  0.11901E-01
 -0.99669E-02
 -0.11303E-01
 -0.84070E-02
 -0.17112E-01
 -0.86738E-02
 -0.12337E-01
 -0.12899E-01
  0.35046E-01
 -0.88225E-02
  0.33974E-01
  0.13046E-01
  0.66559E-02
  0.75284E-02
  0.83023E-02
  0.82299E-02
 -0.12808E-01
 -0.20398E-01
  0.30014E-01
 -0.92173E-02
  0.31658E-01
  0.41926E-02
 -0.21152E-02
 -0.21150E-01
 -0.13487E-01
 -0.13346E-01
 -0.22810E-01
  0.87437E-02
  0.75989E-02
  0.84662E-02
  0.60045E-02
  0.58042E-02
  0.67687E-02
  0.57661E-02
  0.45098E-02
  0.47128E-02
  0.32050E-02
  0.36406E-02
  0.20146E-02
  0.26931E-02
  0.10395E-02
  0.19368E-02
  0.34745E-02
  0.28910E-02
  0.15090E-02
  0.26247E-02
  0.15519E-02
  0.27563E-02
  0.42621E-02
  0.21503E-02
  0.32823E-02
  0.37564E-02
  0.42035E-02
  0.41536E-02
 -0.39259E-02
 -0.12181E-01
 -0.14338E-01
 -0.12988E-01
 -0.14341E-01
 -0.12663E-01
 -0.14889E-01
 -0.13136E-01
 -0.10768E-01
 -0.10515E-01
 -0.99585E-02
 -0.65936E-02
 -0.53354E-02
 -0.55890E-03
  0.22721E-02
 -0.22953E-02
  0.59366E-02
  0.71694E-02
 -0.14161E-01
  0.32356E-01
  0.21095E-01
  0.82207E-02
 -0.92008E-02
  0.18890E-01
  0.19261E-01
 -0.14804E-01
  0.29431E-02
  0.37714E-02
  0.20002E-03
  0.26923E-02
  0.12374E-01
  0.88828E-02
  0.67616E-02
  0.68905E-02
 -0.21058E-01
  0.30379E-01
 -0.25744E-02
 -0.25292E-02
 -0.52820E-02
 -0.21153E-02
 -0.44200E-02
 -0.14274E-02
  0.87157E-02
 -0.73932E-02
  0.40912E-02
  0.50185E-02
  0.48557E-02
  0.84541E-02
  0.68742E-02
 -0.15798E-02
  0.59250E-02
  0.69217E-02
 -0.47897E-02
  0.79380E-02
  0.18171E-01
 -0.11093E-01
  0.87996E-02
  0.13430E-01
  0.22663E-01
  0.92195E-02
 -0.21256E-01
 -0.22115E-01
 -0.23529E-01
 -0.27781E-01
  0.65942E-02
 -0.12666E-01
 -0.12503E-01
 -0.11974E-01
 -0.12507E-01
  0.89383E-02
 -0.24907E-01
 -0.29382E-01
 -0.68719E-02
 -0.17561E-01
 -0.16324E-01
 -0.14282E-01
  0.24989E-01
  0.23612E-01
  0.21881E-01
  0.22324E-01
  0.20428E-01
 -0.12232E-01
 -0.13836E-01
  0.31558E-02
  0.21185E-02
  0.62382E-02
  0.45599E-02
 -0.62534E-02
 -0.16892E-01
 -0.22145E-01
  0.18027E-02
 -0.80651E-03
 -0.74429E-02
  0.66829E-02
  0.36670E-01
  0.38584E-01
 -0.12039E-01
 -0.11647E-01
  0.80316E-03
  0.18936E-02
  0.29324E-01
 -0.21691E-01
 -0.90032E-02
 -0.12760E-01
 -0.12434E-01
 -0.12939E-01
  0.11364E-01
  0.35743E-02
  0.61038E-02
 -0.15818E-01
 -0.50660E-02
 -0.20331E-01
  0.55667E-02
 -0.15535E-01
 -0.14202E-01
  0.14737E-02
 -0.54743E-02
  0.41808E-02
 -0.53445E-02
 -0.72806E-02
 -0.99582E-02
  0.41801E-02
 -0.19691E-01
  0.81822E-02
  0.81173E-02
  0.35015E-03
  0.53716E-02
 -0.14898E-01
  0.72575E-02
 -0.49413E-02
 -0.45699E-02
 -0.17251E-02
 -0.14316E-01
 -0.69141E-02
  0.53600E-02
 -0.15199E-01
 -0.13459E-01
 -0.13298E-01
 -0.13345E-01
 -0.19549E-01
 -0.19870E-01
 -0.14774E-01
  0.39626E-02
  0.62922E-02
  0.61970E-02
  0.75656E-02
  0.79439E-02
  0.77926E-02
  0.81075E-02
 -0.13176E-01
 -0.20471E-01
  0.49213E-02
  0.55229E-02
 -0.31758E-01
 -0.32067E-01
  0.31771E-04
  0.27888E-02
  0.28693E-02
  0.25160E-02
  0.85441E-02
 -0.21617E-01
 -0.30367E-02
  0.11896E-02
 -0.12548E-01
 -0.12737E-01
 -0.13020E-01
 -0.27067E-01
 -0.25298E-01
 -0.28429E-01
 -0.36980E-01
 -0.24785E-01
  0.39527E-01
 -0.65557E-02
  0.10207E-02
  0.23703E-01
  0.22770E-01
 -0.11623E-01
  0.44300E-02
  0.30492E-01
  0.30524E-01
 -0.10490E-02
  0.17188E-02
  0.17030E-02
  0.45911E-02
  0.51217E-02
  0.43935E-02
  0.74137E-02
  0.78574E-02
  0.86331E-02
 -0.12576E-01
 -0.80870E-02
 -0.33368E-02
 -0.45378E-02
 -0.13282E-01
  0.19334E-01
  0.17974E-01
  0.16406E-01
  0.15238E-01
  0.19187E-01
  0.36441E-02
  0.34593E-03
  0.11729E-01
 -0.28918E-02
 -0.36480E-02
 -0.12278E-01
 -0.12384E-01
 -0.13124E-01
 -0.13415E-01
 -0.15060E-01
  0.69894E-02
  0.68973E-02
  0.67058E-02
  0.65905E-02
  0.68264E-02
  0.63913E-02
 -0.13024E-01
 -0.15291E-01
 -0.13441E-01
 -0.28530E-01
  0.12821E-01
  0.12164E-01
 -0.11921E-01
 -0.12470E-01
 -0.10665E-01
 -0.11411E-01
 -0.71283E-02
 -0.22349E-02
  0.65249E-02
 -0.89349E-02
  0.19459E-01
  0.16722E-01
  0.25202E-01
  0.22385E-01
  0.15097E-01
  0.28463E-01
 -0.35504E-03
  0.97731E-02
  0.79722E-02
 -0.14202E-01
 -0.14690E-01
 -0.80372E-02
 -0.27460E-01
 -0.22791E-01
 -0.31739E-01
 -0.26581E-01
 -0.30935E-01
  0.26451E-01
  0.11674E-01
  0.17481E-01
  0.17763E-01
  0.19281E-01
 -0.72069E-02
 -0.79740E-02
 -0.72604E-02
  0.80518E-02
  0.80475E-02
  0.83912E-02
  0.86748E-02
  0.87373E-02
 -0.50112E-02
 -0.48900E-02
 -0.52120E-02
 -0.39896E-02
 -0.47035E-02
  0.13488E-01
  0.14309E-01
 -0.12229E-01
 -0.18480E-01
  0.40811E-02
  0.10895E-02
 -0.31205E-02
 -0.51797E-03
 -0.90711E-02
  0.55609E-02
  0.14021E-02
  0.49610E-02
  0.93476E-02
  0.86530E-02
 -0.18342E-01
 -0.18954E-01
 -0.17739E-01
 -0.15981E-01
  0.10997E-01
 -0.26240E-02
 -0.18006E-05
 -0.11596E-03
  0.69649E-02
 -0.17816E-01
 -0.18642E-01
 -0.19224E-01
 -0.16946E-01
 -0.16653E-01
 -0.15985E-01
 -0.63646E-02
 -0.20321E-01
 -0.44378E-03
  0.36651E-02
  0.39894E-02
 -0.13576E-01
  0.35968E-02
  0.29426E-02
 -0.14805E-01
 -0.14306E-01
 -0.14842E-01
 -0.13965E-01
 -0.39836E-02
  0.50516E-02
 -0.12507E-01
  0.64684E-02
  0.67727E-02
  0.70558E-02
  0.70559E-02
  0.84905E-02
  0.11498E-02
  0.29655E-01
  0.43169E-02
  0.45326E-02
  0.93134E-02
 -0.92219E-02
  0.16734E-01
  0.23324E-01
  0.27432E-01
  0.67385E-02
 -0.20060E-01
 -0.20485E-01
 -0.20890E-01
  0.34980E-01
  0.50824E-02
  0.16674E-01
  0.56245E-03
  0.25594E-01
 -0.13172E-01
  0.25764E-01
  0.26938E-01
 -0.21088E-01
 -0.86301E-02
 -0.13038E-01
  0.14701E-01
 -0.18904E-01
 -0.22380E-01
 -0.22080E-01
 -0.20275E-01
 -0.12351E-01
  0.39311E-02
  0.44615E-02
  0.28944E-01
  0.24861E-01
  0.33474E-01
 -0.19771E-01
 -0.21637E-01
 -0.15206E-01
 -0.22736E-01
  0.91791E-02
 -0.29288E-02
 -0.76917E-04
 -0.14736E-01
 -0.29598E-01
 -0.35017E-01
 -0.41415E-01
 -0.34859E-01
  0.10014E-01
  0.54619E-02
 -0.80195E-03
  0.13080E-02
  0.55858E-02
  0.17400E-01
  0.19043E-01
  0.20843E-01
  0.14439E-01
 -0.11161E-01
 -0.99628E-02
 -0.21273E-01
 -0.22727E-01
 -0.19203E-01
  0.13703E-01
  0.18936E-01
  0.23629E-01
  0.34206E-01
  0.12651E-01
  0.51406E-02
 -0.27495E-02
 -0.13730E-01
 -0.13568E-01
  0.72623E-02
  0.73173E-02
  0.98223E-02
 -0.12463E-01
  0.67901E-02
 -0.96770E-02
 -0.11181E-01
  0.55405E-02
  0.53400E-02
  0.59065E-02
  0.56281E-02
  0.59765E-02
 -0.20371E-01
 -0.20274E-01
 -0.26213E-01
 -0.31581E-01
 -0.14218E-01
 -0.14424E-01
 -0.30921E-02
  0.59986E-02
 -0.95420E-02
 -0.13372E-01
  0.67357E-02
  0.38480E-01
  0.35701E-01
  0.39106E-01
  0.36417E-01
  0.38831E-01
  0.40506E-01
  0.52938E-02
  0.65249E-02
 -0.45573E-02
 -0.11512E-01
 -0.11921E-01
 -0.13323E-01
 -0.10909E-01
 -0.10386E-01
 -0.13072E-01
 -0.21087E-01
 -0.74886E-02
 -0.61475E-02
 -0.21836E-01
  0.10438E-01
 -0.22170E-01
 -0.29794E-01
 -0.38184E-01
 -0.13033E-01
  0.79935E-02
  0.41676E-01
 -0.42124E-01
 -0.13911E-01
 -0.13659E-01
 -0.14070E-01
 -0.12061E-01
 -0.12695E-01
 -0.17328E-01
 -0.33852E-01
 -0.25638E-02
 -0.82876E-02
 -0.85463E-02
 -0.20074E-01
  0.16223E-01
  0.70445E-02
 -0.10498E-01
 -0.12715E-01
 -0.92329E-02
 -0.10303E-01
 -0.82671E-02
 -0.86379E-02
 -0.22434E-01
 -0.22182E-01
 -0.21690E-01
 -0.49100E-02
 -0.49097E-02
 -0.21335E-01
 -0.14535E-02
  0.55992E-03
 -0.46816E-03
 -0.21357E-01
 -0.21778E-01
 -0.12099E-02
 -0.78447E-02
  0.29121E-01
  0.28707E-01
 -0.27663E-01
  0.25171E-01
  0.24870E-01
  0.26810E-01
 -0.17488E-01
 -0.16770E-01
 -0.14815E-01
  0.86935E-02
 -0.47080E-02
 -0.12979E-01
 -0.15460E-01
  0.57618E-02
  0.60167E-02
  0.55603E-02
  0.62878E-02
 -0.12249E-01
 -0.77852E-04
 -0.12446E-01
 -0.12918E-01
  0.32822E-01
 -0.14497E-01
  0.49304E-02
  0.32327E-01
  0.23164E-02
 -0.11918E-01
 -0.28750E-01
 -0.26637E-02
 -0.11759E-01
 -0.21667E-01
 -0.20349E-01
 -0.29362E-01
 -0.32166E-02
 -0.33722E-01
 -0.26907E-01
 -0.34323E-01
 -0.13399E-01
 -0.20797E-01
  0.55005E-02
 -0.69944E-03
 -0.14422E-01
 -0.14277E-01
 -0.19570E-01
 -0.15338E-01
 -0.15162E-01
 -0.16214E-01
  0.21554E-03
 -0.72657E-03
 -0.20139E-01
  0.35122E-03
 -0.13051E-02
 -0.24103E-02
 -0.33627E-04
  0.29278E-02
  0.11576E-02
 -0.62239E-03
  0.44822E-02
  0.43994E-02
  0.63294E-02
  0.48948E-02
  0.27979E-02
  0.42221E-01
  0.41525E-01
  0.21756E-01
  0.24387E-01
  0.17928E-02
  0.11770E-02
 -0.75407E-04
  0.27313E-03
 -0.11481E-02
 -0.17364E-02
 -0.30392E-02
 -0.37879E-02
 -0.55976E-02
 -0.49490E-02
 -0.65578E-02
 -0.81297E-02
 -0.68987E-02
  0.13247E-02
 -0.24531E-02
  0.26923E-02
  0.58002E-02
  0.79984E-02
  0.10988E-01
  0.12192E-01
  0.14031E-01
  0.14599E-01
  0.16512E-01
 -0.13275E-01
 -0.13560E-01
  0.24591E-01
 -0.15221E-01
 -0.12972E-01
 -0.74109E-03
  0.53414E-02
 -0.14210E-01
  0.14781E-01
 -0.12942E-01
 -0.10022E-01
  0.26338E-01
  0.27258E-01
  0.28299E-01
  0.57306E-02
 -0.13408E-01
  0.18953E-01
 -0.12236E-01
  0.58351E-02
  0.60793E-02
  0.61963E-02
  0.61136E-02
 -0.22470E-01
 -0.26689E-02
  0.20144E-01
  0.22156E-01
  0.22396E-01
  0.31326E-02
  0.26509E-02
  0.20049E-02
  0.20280E-02
 -0.11843E-02
 -0.40551E-01
  0.92296E-02
  0.67811E-02
 -0.44143E-01
 -0.43272E-03
 -0.36922E-02
 -0.52936E-02
 -0.79009E-02
 -0.94719E-02
  0.52365E-02
  0.49075E-02
  0.14274E-01
 -0.20757E-01
 -0.13040E-01
  0.49468E-02
  0.59298E-02
 -0.14325E-01
  0.76244E-02
  0.73643E-02