# vtk DataFile Version 2.0
Unstructured Grid UFVM-ECOMOD
ASCII
DATASET UNSTRUCTURED_GRID
 POINTS         1810  float
  0.00000E+00  0.00000E+00  0.00000E+00
  0.40000E+01  0.00000E+00  0.00000E+00
  0.40000E+01  0.20000E+01  0.00000E+00
  0.00000E+00  0.20000E+01  0.00000E+00
  0.12217E+01  0.98333E+00  0.00000E+00
  0.81167E+00  0.11389E+01  0.00000E+00
  0.12217E+01  0.12944E+01  0.00000E+00
  0.10000E+00  0.00000E+00  0.00000E+00
  0.20000E+00  0.00000E+00  0.00000E+00
  0.30000E+00  0.00000E+00  0.00000E+00
  0.40000E+00  0.00000E+00  0.00000E+00
  0.50000E+00  0.00000E+00  0.00000E+00
  0.60000E+00  0.00000E+00  0.00000E+00
  0.70000E+00  0.00000E+00  0.00000E+00
  0.80000E+00  0.00000E+00  0.00000E+00
  0.90000E+00  0.00000E+00  0.00000E+00
  0.10000E+01  0.00000E+00  0.00000E+00
  0.11000E+01  0.00000E+00  0.00000E+00
  0.12000E+01  0.00000E+00  0.00000E+00
  0.13000E+01  0.00000E+00  0.00000E+00
  0.14000E+01  0.00000E+00  0.00000E+00
  0.15000E+01  0.00000E+00  0.00000E+00
  0.16000E+01  0.00000E+00  0.00000E+00
  0.17000E+01  0.00000E+00  0.00000E+00
  0.18000E+01  0.00000E+00  0.00000E+00
  0.19000E+01  0.00000E+00  0.00000E+00
  0.20000E+01  0.00000E+00  0.00000E+00
  0.21000E+01  0.00000E+00  0.00000E+00
  0.22000E+01  0.00000E+00  0.00000E+00
  0.23000E+01  0.00000E+00  0.00000E+00
  0.24000E+01  0.00000E+00  0.00000E+00
  0.25000E+01  0.00000E+00  0.00000E+00
  0.26000E+01  0.00000E+00  0.00000E+00
  0.27000E+01  0.00000E+00  0.00000E+00
  0.28000E+01  0.00000E+00  0.00000E+00
  0.29000E+01  0.00000E+00  0.00000E+00
  0.30000E+01  0.00000E+00  0.00000E+00
  0.31000E+01  0.00000E+00  0.00000E+00
  0.32000E+01  0.00000E+00  0.00000E+00
  0.33000E+01  0.00000E+00  0.00000E+00
  0.34000E+01  0.00000E+00  0.00000E+00
  0.35000E+01  0.00000E+00  0.00000E+00
  0.36000E+01  0.00000E+00  0.00000E+00
  0.37000E+01  0.00000E+00  0.00000E+00
  0.38000E+01  0.00000E+00  0.00000E+00
  0.39000E+01  0.00000E+00  0.00000E+00
  0.40000E+01  0.10000E+00  0.00000E+00
  0.40000E+01  0.20000E+00  0.00000E+00
  0.40000E+01  0.30000E+00  0.00000E+00
  0.40000E+01  0.40000E+00  0.00000E+00
  0.40000E+01  0.50000E+00  0.00000E+00
  0.40000E+01  0.60000E+00  0.00000E+00
  0.40000E+01  0.70000E+00  0.00000E+00
  0.40000E+01  0.80000E+00  0.00000E+00
  0.40000E+01  0.90000E+00  0.00000E+00
  0.40000E+01  0.10000E+01  0.00000E+00
  0.40000E+01  0.11000E+01  0.00000E+00
  0.40000E+01  0.12000E+01  0.00000E+00
  0.40000E+01  0.13000E+01  0.00000E+00
  0.40000E+01  0.14000E+01  0.00000E+00
  0.40000E+01  0.15000E+01  0.00000E+00
  0.40000E+01  0.16000E+01  0.00000E+00
  0.40000E+01  0.17000E+01  0.00000E+00
  0.40000E+01  0.18000E+01  0.00000E+00
  0.40000E+01  0.19000E+01  0.00000E+00
  0.39000E+01  0.20000E+01  0.00000E+00
  0.38000E+01  0.20000E+01  0.00000E+00
  0.37000E+01  0.20000E+01  0.00000E+00
  0.36000E+01  0.20000E+01  0.00000E+00
  0.35000E+01  0.20000E+01  0.00000E+00
  0.34000E+01  0.20000E+01  0.00000E+00
  0.33000E+01  0.20000E+01  0.00000E+00
  0.32000E+01  0.20000E+01  0.00000E+00
  0.31000E+01  0.20000E+01  0.00000E+00
  0.30000E+01  0.20000E+01  0.00000E+00
  0.29000E+01  0.20000E+01  0.00000E+00
  0.28000E+01  0.20000E+01  0.00000E+00
  0.27000E+01  0.20000E+01  0.00000E+00
  0.26000E+01  0.20000E+01  0.00000E+00
  0.25000E+01  0.20000E+01  0.00000E+00
  0.24000E+01  0.20000E+01  0.00000E+00
  0.23000E+01  0.20000E+01  0.00000E+00
  0.22000E+01  0.20000E+01  0.00000E+00
  0.21000E+01  0.20000E+01  0.00000E+00
  0.20000E+01  0.20000E+01  0.00000E+00
  0.19000E+01  0.20000E+01  0.00000E+00
  0.18000E+01  0.20000E+01  0.00000E+00
  0.17000E+01  0.20000E+01  0.00000E+00
  0.16000E+01  0.20000E+01  0.00000E+00
  0.15000E+01  0.20000E+01  0.00000E+00
  0.14000E+01  0.20000E+01  0.00000E+00
  0.13000E+01  0.20000E+01  0.00000E+00
  0.12000E+01  0.20000E+01  0.00000E+00
  0.11000E+01  0.20000E+01  0.00000E+00
  0.10000E+01  0.20000E+01  0.00000E+00
  0.90000E+00  0.20000E+01  0.00000E+00
  0.80000E+00  0.20000E+01  0.00000E+00
  0.70000E+00  0.20000E+01  0.00000E+00
  0.60000E+00  0.20000E+01  0.00000E+00
  0.50000E+00  0.20000E+01  0.00000E+00
  0.40000E+00  0.20000E+01  0.00000E+00
  0.30000E+00  0.20000E+01  0.00000E+00
  0.20000E+00  0.20000E+01  0.00000E+00
  0.10000E+00  0.20000E+01  0.00000E+00
  0.00000E+00  0.19000E+01  0.00000E+00
  0.00000E+00  0.18000E+01  0.00000E+00
  0.00000E+00  0.17000E+01  0.00000E+00
  0.00000E+00  0.16000E+01  0.00000E+00
  0.00000E+00  0.15000E+01  0.00000E+00
  0.00000E+00  0.14000E+01  0.00000E+00
  0.00000E+00  0.13000E+01  0.00000E+00
  0.00000E+00  0.12000E+01  0.00000E+00
  0.00000E+00  0.11000E+01  0.00000E+00
  0.00000E+00  0.10000E+01  0.00000E+00
  0.00000E+00  0.90000E+00  0.00000E+00
  0.00000E+00  0.80000E+00  0.00000E+00
  0.00000E+00  0.70000E+00  0.00000E+00
  0.00000E+00  0.60000E+00  0.00000E+00
  0.00000E+00  0.50000E+00  0.00000E+00
  0.00000E+00  0.40000E+00  0.00000E+00
  0.00000E+00  0.30000E+00  0.00000E+00
  0.00000E+00  0.20000E+00  0.00000E+00
  0.00000E+00  0.10000E+00  0.00000E+00
  0.11989E+01  0.99198E+00  0.00000E+00
  0.11761E+01  0.10006E+01  0.00000E+00
  0.11533E+01  0.10093E+01  0.00000E+00
  0.11306E+01  0.10179E+01  0.00000E+00
  0.11078E+01  0.10265E+01  0.00000E+00
  0.10850E+01  0.10352E+01  0.00000E+00
  0.10622E+01  0.10438E+01  0.00000E+00
  0.10394E+01  0.10525E+01  0.00000E+00
  0.10167E+01  0.10611E+01  0.00000E+00
  0.99389E+00  0.10697E+01  0.00000E+00
  0.97111E+00  0.10784E+01  0.00000E+00
  0.94833E+00  0.10870E+01  0.00000E+00
  0.92556E+00  0.10957E+01  0.00000E+00
  0.90278E+00  0.11043E+01  0.00000E+00
  0.88000E+00  0.11130E+01  0.00000E+00
  0.85722E+00  0.11216E+01  0.00000E+00
  0.83444E+00  0.11302E+01  0.00000E+00
  0.83444E+00  0.11475E+01  0.00000E+00
  0.85722E+00  0.11562E+01  0.00000E+00
  0.88000E+00  0.11648E+01  0.00000E+00
  0.90278E+00  0.11735E+01  0.00000E+00
  0.92556E+00  0.11821E+01  0.00000E+00
  0.94833E+00  0.11907E+01  0.00000E+00
  0.97111E+00  0.11994E+01  0.00000E+00
  0.99389E+00  0.12080E+01  0.00000E+00
  0.10167E+01  0.12167E+01  0.00000E+00
  0.10394E+01  0.12253E+01  0.00000E+00
  0.10622E+01  0.12340E+01  0.00000E+00
  0.10850E+01  0.12426E+01  0.00000E+00
  0.11078E+01  0.12512E+01  0.00000E+00
  0.11306E+01  0.12599E+01  0.00000E+00
  0.11533E+01  0.12685E+01  0.00000E+00
  0.11761E+01  0.12772E+01  0.00000E+00
  0.11989E+01  0.12858E+01  0.00000E+00
  0.12217E+01  0.12705E+01  0.00000E+00
  0.12217E+01  0.12466E+01  0.00000E+00
  0.12217E+01  0.12227E+01  0.00000E+00
  0.12217E+01  0.11987E+01  0.00000E+00
  0.12217E+01  0.11748E+01  0.00000E+00
  0.12217E+01  0.11508E+01  0.00000E+00
  0.12217E+01  0.11269E+01  0.00000E+00
  0.12217E+01  0.11030E+01  0.00000E+00
  0.12217E+01  0.10791E+01  0.00000E+00
  0.12217E+01  0.10551E+01  0.00000E+00
  0.12217E+01  0.10312E+01  0.00000E+00
  0.12217E+01  0.10073E+01  0.00000E+00
  0.12429E+01  0.10188E+01  0.00000E+00
  0.12399E+01  0.11882E+01  0.00000E+00
  0.21377E+01  0.78680E-01  0.00000E+00
  0.21538E+01  0.19174E+01  0.00000E+00
  0.83774E+00  0.11061E+01  0.00000E+00
  0.97541E+00  0.10554E+01  0.00000E+00
  0.11166E+01  0.10045E+01  0.00000E+00
  0.29463E+01  0.19156E+01  0.00000E+00
  0.26515E+01  0.81480E-01  0.00000E+00
  0.25477E+01  0.19110E+01  0.00000E+00
  0.30502E+01  0.68680E-01  0.00000E+00
  0.83912E+00  0.11750E+01  0.00000E+00
  0.95224E+00  0.12148E+01  0.00000E+00
  0.10661E+01  0.12580E+01  0.00000E+00
  0.11804E+01  0.13002E+01  0.00000E+00
  0.39119E+01  0.10505E+01  0.00000E+00
  0.17555E+01  0.84130E-01  0.00000E+00
  0.64649E+00  0.99150E-01  0.00000E+00
  0.17446E+01  0.19250E+01  0.00000E+00
  0.86600E-01  0.65000E+00  0.00000E+00
  0.14551E+01  0.78430E-01  0.00000E+00
  0.96058E+00  0.81690E-01  0.00000E+00
  0.33501E+01  0.19134E+01  0.00000E+00
  0.39162E+01  0.63967E+00  0.00000E+00
  0.82470E-01  0.14561E+01  0.00000E+00
  0.55009E+00  0.19215E+01  0.00000E+00
  0.85020E-01  0.95314E+00  0.00000E+00
  0.39167E+01  0.13623E+01  0.00000E+00
  0.33616E+01  0.95540E-01  0.00000E+00
  0.90682E+00  0.10774E+01  0.00000E+00
  0.10433E+01  0.10284E+01  0.00000E+00
  0.11799E+01  0.97718E+00  0.00000E+00
  0.12429E+01  0.10931E+01  0.00000E+00
  0.12436E+01  0.12583E+01  0.00000E+00
  0.85035E+00  0.19198E+01  0.00000E+00
  0.14457E+01  0.19288E+01  0.00000E+00
  0.11516E+01  0.19130E+01  0.00000E+00
  0.36450E+01  0.85340E-01  0.00000E+00
  0.84610E-01  0.34945E+00  0.00000E+00
  0.36500E+01  0.19134E+01  0.00000E+00
  0.35776E+00  0.89100E-01  0.00000E+00
  0.39086E+01  0.16476E+01  0.00000E+00
  0.39134E+01  0.35000E+00  0.00000E+00
  0.83900E-01  0.11460E+01  0.00000E+00
  0.35715E+00  0.19076E+01  0.00000E+00
  0.83410E-01  0.16549E+01  0.00000E+00
  0.12495E+01  0.81910E-01  0.00000E+00
  0.19505E+01  0.76550E-01  0.00000E+00
  0.23503E+01  0.82860E-01  0.00000E+00
  0.19504E+01  0.19252E+01  0.00000E+00
  0.23461E+01  0.19181E+01  0.00000E+00
  0.28427E+01  0.83720E-01  0.00000E+00
  0.31542E+01  0.19172E+01  0.00000E+00
  0.27508E+01  0.19148E+01  0.00000E+00
  0.39150E+01  0.84994E+00  0.00000E+00
  0.88020E+00  0.11939E+01  0.00000E+00
  0.99745E+00  0.12340E+01  0.00000E+00
  0.12424E+01  0.11389E+01  0.00000E+00
  0.11119E+01  0.12747E+01  0.00000E+00
  0.78910E-01  0.18478E+01  0.00000E+00
  0.38489E+01  0.73890E-01  0.00000E+00
  0.86600E-01  0.15000E+00  0.00000E+00
  0.38461E+01  0.19156E+01  0.00000E+00
  0.83750E-01  0.10487E+01  0.00000E+00
  0.16314E+00  0.10008E+01  0.00000E+00
  0.16591E+00  0.91287E+00  0.00000E+00
  0.23730E+00  0.95594E+00  0.00000E+00
  0.24013E+00  0.87512E+00  0.00000E+00
  0.30661E+00  0.91623E+00  0.00000E+00
  0.30296E+00  0.99591E+00  0.00000E+00
  0.30938E+00  0.83944E+00  0.00000E+00
  0.37444E+00  0.87856E+00  0.00000E+00
  0.37563E+00  0.80503E+00  0.00000E+00
  0.43612E+00  0.84332E+00  0.00000E+00
  0.43924E+00  0.77347E+00  0.00000E+00
  0.49710E+00  0.80859E+00  0.00000E+00
  0.50063E+00  0.74182E+00  0.00000E+00
  0.55658E+00  0.77549E+00  0.00000E+00
[...]
 POINT_DATA         1810
  
 SCALARS WL      float 1
 LOOKUP_TABLE default
  0.12316E-01
  0.20408E-02
 -0.84805E-03
  0.15698E-01
 -0.30113E-01
  0.26502E-01
 -0.17708E-01
  0.12439E-01
  0.12699E-01
  0.12981E-01
  0.13219E-01
  0.13308E-01
  0.13221E-01
  0.12825E-01
  0.12020E-01
  0.10957E-01
  0.97036E-02
  0.84001E-02
  0.70914E-02
  0.59889E-02
  0.51339E-02
  0.46509E-02
  0.45132E-02
  0.47005E-02
  0.51661E-02
  0.58763E-02
  0.67564E-02
  0.76376E-02
  0.84265E-02
  0.88856E-02
  0.89891E-02
  0.86418E-02
  0.79708E-02
  0.71319E-02
  0.62707E-02
  0.54320E-02
  0.48733E-02
  0.45037E-02
  0.45606E-02
  0.49394E-02
  0.54694E-02
  0.60808E-02
  0.63898E-02
  0.62055E-02
  0.52429E-02
  0.35162E-02
  0.00000E+00
  0.00000E+00
  0.00000E+00
  0.00000E+00
  0.00000E+00
  0.00000E+00
  0.00000E+00
  0.00000E+00
  0.00000E+00
  0.00000E+00
  0.00000E+00
  0.00000E+00
  0.00000E+00
  0.00000E+00
  0.00000E+00
  0.00000E+00
  0.00000E+00
  0.00000E+00
  0.00000E+00
 -0.10835E-02
 -0.10439E-02
 -0.37524E-03
  0.82605E-03
  0.24350E-02
  0.39724E-02
  0.54963E-02
  0.68906E-02
  0.78084E-02
  0.81330E-02
  0.77045E-02
  0.67963E-02
  0.57875E-02
  0.50215E-02
  0.45346E-02
  0.44318E-02
  0.43277E-02
  0.42659E-02
  0.42561E-02
  0.43967E-02
  0.45237E-02
  0.45667E-02
  0.45224E-02
  0.44631E-02
  0.44557E-02
  0.47136E-02
  0.52936E-02
  0.60743E-02
  0.71565E-02
  0.83380E-02
  0.95715E-02
  0.10738E-01
  0.11745E-01
  0.12586E-01
  0.13293E-01
  0.13932E-01
  0.14492E-01
  0.15016E-01
  0.15467E-01
  0.15743E-01
  0.15788E-01
  0.15847E-01
  0.15909E-01
  0.15958E-01
  0.15968E-01
  0.15909E-01
  0.15780E-01
  0.15563E-01
  0.15268E-01
  0.14909E-01
  0.14504E-01
  0.14067E-01
  0.13645E-01
  0.13261E-01
  0.12938E-01
  0.12666E-01
  0.12463E-01
  0.12339E-01
 -0.14750E-01
 -0.93472E-02
 -0.51899E-02
 -0.26526E-02
  0.10694E-02
  0.37900E-02
  0.46078E-02
  0.66629E-02
  0.84480E-02
  0.10096E-01
  0.11318E-01
  0.13100E-01
  0.14441E-01
  0.16646E-01
  0.18164E-01
  0.20132E-01
  0.23337E-01
  0.25706E-01
  0.22547E-01
  0.21325E-01
  0.19172E-01
  0.18318E-01
  0.16335E-01
  0.15546E-01
  0.14044E-01
  0.12926E-01
  0.11757E-01
  0.10355E-01
  0.88948E-02
  0.74079E-02
  0.55138E-02
  0.28547E-02
 -0.20795E-03
 -0.47307E-02
 -0.22303E-01
 -0.21708E-01
 -0.23427E-01
 -0.26610E-01
 -0.31898E-01
 -0.38022E-01
 -0.43826E-01
 -0.47680E-01
 -0.49007E-01
 -0.47508E-01
 -0.43965E-01
 -0.40246E-01
 -0.42197E-01
 -0.29318E-01
  0.79561E-02
  0.43529E-02
  0.21071E-01
  0.10757E-01
 -0.12388E-02
  0.79081E-02
  0.75372E-02
  0.46826E-02
  0.46521E-02
  0.23001E-01
  0.15972E-01
  0.96405E-02
 -0.17789E-02
 -0.21474E-03
  0.49275E-02
  0.13030E-01
  0.44378E-02
  0.13891E-01
  0.47850E-02
  0.10206E-01
  0.47737E-02
  0.39294E-02
  0.15850E-01
  0.13013E-01
  0.15087E-01
 -0.48329E-02
  0.52219E-02
  0.15325E-01
  0.56234E-02
 -0.11184E-01
 -0.49474E-01
 -0.21573E-01
  0.10266E-01
  0.44339E-02
  0.65261E-02
  0.64311E-02
  0.12867E-01
  0.12509E-03
  0.13132E-01
 -0.26798E-02
  0.33897E-02
  0.15626E-01
  0.14220E-01
  0.15718E-01
  0.64516E-02
  0.63247E-02
  0.89859E-02
  0.44474E-02
  0.44668E-02
  0.59145E-02
  0.73957E-02
  0.62545E-02
  0.29612E-02
  0.20000E-01
  0.13396E-01
 -0.42025E-01
  0.66988E-02
  0.15606E-01
  0.44911E-02
  0.12501E-01
 -0.12143E-02
  0.15390E-01
  0.15247E-01
  0.14964E-01
  0.15161E-01
  0.14887E-01
  0.15091E-01
  0.15351E-01
  0.14805E-01
  0.15004E-01
  0.14687E-01
  0.14852E-01
  0.14514E-01
  0.14605E-01
  0.14242E-01
  0.14248E-01
  0.13850E-01
  0.13741E-01
  0.13355E-01
  0.13088E-01
  0.15036E-01
  0.12774E-01
  0.12324E-01
  0.12750E-01
  0.11786E-01
  0.11447E-01
  0.10688E-01
  0.10487E-01
  0.95475E-02
  0.94878E-02
  0.83739E-02
  0.83996E-02
  0.70627E-02
  0.72287E-02
  0.57623E-02
  0.61738E-02
  0.46534E-02
  0.13519E-01
  0.12331E-01
  0.52579E-02
  0.36700E-02
  0.27115E-02
  0.18343E-02
  0.29829E-02
  0.13971E-02
 -0.11548E-03
 -0.20135E-03
 -0.20921E-02
 -0.16662E-02
  0.16148E-03
 -0.78953E-03
 -0.29323E-02
 -0.14248E-02
 -0.38636E-02
 -0.15048E-02
 -0.41143E-02
 -0.76632E-03
 -0.34498E-02
  0.63248E-03
 -0.18288E-02
  0.26776E-02
  0.40461E-03
  0.46562E-02
  0.20400E-02
  0.56205E-02
  0.13858E-02
  0.40757E-02
 -0.31274E-02
 -0.79596E-03
  0.57314E-02
  0.10515E-02
 -0.60008E-02
 -0.41615E-02
  0.87694E-03
 -0.54097E-02
 -0.92690E-02
 -0.14926E-02
 -0.91672E-02
  0.36702E-02
 -0.53120E-02
 -0.12526E-01
 -0.15321E-01
 -0.16276E-01
 -0.17343E-01
 -0.15365E-01
 -0.11033E-01
 -0.91229E-02
 -0.41469E-02
 -0.35391E-02
 -0.69749E-02
 -0.35486E-02
 -0.29284E-03
 -0.15519E-02
  0.16900E-02
 -0.10298E-03
 -0.37757E-02
 -0.25033E-02
  0.11967E-02
 -0.87194E-03
  0.23029E-03
  0.24333E-02
  0.14413E-03
 -0.28503E-02
 -0.24055E-02
 -0.24833E-03
 -0.36213E-02
 -0.52077E-02
 -0.19839E-02
 -0.43936E-02
 -0.64844E-02
  0.19668E-02
 -0.49406E-02
 -0.74892E-02
 -0.40627E-02
 -0.23176E-02
 -0.72259E-03
  0.44553E-02
  0.34339E-02
 -0.59889E-02
 -0.91792E-02
 -0.58483E-02
  0.70525E-02
 -0.95533E-03
  0.62148E-02
  0.59677E-02
  0.10431E-01
  0.66323E-02
 -0.27997E-02
  0.98652E-03
 -0.73974E-02
  0.68972E-02
  0.68805E-02
 -0.51584E-03
  0.22797E-02
  0.37548E-02
  0.62841E-02
  0.72574E-02
  0.71022E-02
  0.72415E-02
  0.72414E-02
  0.68473E-02
  0.67344E-02
  0.64911E-02
  0.18012E-03
 -0.21870E-02
  0.24125E-02
  0.14240E-01
  0.14420E-01
  0.77341E-02
  0.74489E-02
 -0.19538E-02
  0.25966E-02
  0.82001E-02
  0.78699E-02
  0.74219E-02
  0.84027E-02
  0.80582E-02
 -0.60032E-02
 -0.67010E-02
  0.18750E-02
  0.14322E-03
  0.35454E-02
  0.21816E-02
  0.45951E-02
  0.36521E-02
  0.11932E-02
  0.30237E-02
  0.12704E-02
  0.31711E-02
  0.25992E-02
  0.51421E-02
  0.41131E-02
  0.45176E-02
  0.25908E-02
  0.59735E-02
  0.53895E-02
  0.61883E-02
  0.41548E-02
 -0.83737E-02
 -0.64679E-02
 -0.67692E-02
 -0.45585E-02
 -0.31099E-02
 -0.13057E-02
  0.73762E-03
  0.19789E-02
 -0.69850E-03
 -0.14427E-02
  0.24060E-02
  0.48388E-03
  0.36922E-02
  0.24228E-02
  0.41621E-02
  0.24199E-02
  0.37066E-02
  0.16891E-02
  0.29631E-02
  0.78507E-03
 -0.15274E-02
 -0.27523E-02
 -0.39340E-04
 -0.34372E-02
 -0.60173E-03
 -0.35629E-02
 -0.82868E-02
 -0.72282E-02
 -0.32598E-02
 -0.57840E-02
 -0.10120E-01
 -0.71792E-02
 -0.10314E-01
 -0.41844E-02
 -0.47018E-02
 -0.30063E-02
 -0.35300E-02
 -0.20343E-02
 -0.27334E-02
 -0.80597E-03
 -0.12131E-02
  0.71556E-03
  0.10671E-02
  0.26139E-02
  0.33313E-02
  0.45261E-02
  0.55109E-02
  0.62374E-02
  0.73519E-02
 -0.44894E-02
 -0.11259E-02
  0.22161E-02
  0.76903E-02
  0.88444E-02
  0.87732E-02
  0.10087E-01
  0.10163E-01
  0.11334E-01
  0.11072E-01
  0.12274E-01
  0.11843E-01
  0.12917E-01
  0.13638E-01
  0.13966E-01
  0.13332E-01
  0.14213E-01
  0.14945E-01
  0.14992E-01
  0.15799E-01
  0.15620E-01
  0.14955E-01
  0.15433E-01
  0.16062E-01
  0.15764E-01
  0.16304E-01
  0.14918E-01
  0.15940E-01
  0.16351E-01
  0.15985E-01
  0.15709E-01
  0.16783E-01
  0.15868E-01
  0.87368E-02
  0.10230E-01
 -0.71590E-02
  0.16257E-01
  0.16842E-01
  0.15952E-01
  0.16472E-01
  0.17025E-01
 -0.14979E-01
 -0.12714E-01
 -0.19094E-01
 -0.17556E-01
 -0.11704E-01
 -0.21391E-01
 -0.16253E-01
 -0.30487E-01
  0.24686E-02
 -0.68157E-03
 -0.32138E-01
 -0.43455E-01
 -0.42334E-01
 -0.55215E-01
 -0.50942E-01
 -0.61021E-01
 -0.22986E-01
  0.44694E-02
 -0.13259E-01
  0.88932E-02
  0.51714E-02
  0.60640E-02
  0.56456E-02
 -0.47434E-02
  0.13630E-01
  0.12806E-01
  0.13179E-01
  0.58562E-02
  0.71342E-02
  0.64079E-02
 -0.75569E-03
  0.13257E-02
  0.38996E-02
 -0.33952E-02
  0.76221E-02
  0.59624E-02
  0.15888E-02
  0.11446E-02
  0.40720E-02
  0.64435E-02
 -0.50675E-01
 -0.58666E-01
 -0.65032E-01
 -0.60785E-01
  0.64085E-03
  0.73791E-02
  0.86712E-02
  0.10442E-01
  0.12483E-02
  0.42053E-02
  0.16540E-01
  0.17061E-01
  0.17739E-01
  0.17734E-01
  0.16901E-01
  0.17530E-01
  0.68843E-02
  0.27507E-02
 -0.53318E-01
 -0.38323E-01
  0.54167E-02
  0.78585E-02
  0.60285E-02
  0.50868E-02
  0.49068E-02
  0.43845E-02
  0.44108E-02
  0.40116E-02
  0.24019E-02
 -0.29858E-03
 -0.43092E-02
 -0.23513E-02
 -0.65611E-02
 -0.22612E-02
  0.14520E-02
  0.26491E-02
  0.64860E-02
  0.71372E-02
  0.68632E-02
  0.85083E-02
  0.71438E-02
  0.87204E-02
  0.73836E-02
  0.91182E-02
  0.55848E-02
  0.57331E-02
  0.37816E-02
  0.38037E-02
  0.16501E-02
  0.59899E-02
  0.16527E-01
  0.16756E-01
  0.17690E-01
  0.16746E-01
  0.27872E-02
  0.83230E-02
 -0.39624E-01
  0.15844E-02
 -0.93173E-03
 -0.49973E-03
 -0.34450E-02
 -0.24415E-02
 -0.46564E-02
  0.67282E-02
  0.11720E-01
  0.76057E-02
  0.18666E-01
 -0.18090E-02
  0.12111E-01
  0.13131E-01
  0.64507E-02
 -0.21884E-02
  0.15945E-01
  0.15682E-01
  0.16427E-01
  0.15134E-01
  0.15668E-01
  0.83457E-02
  0.14233E-01
  0.14516E-01
  0.12350E-01
  0.82822E-02
  0.87698E-02
  0.95410E-02
 -0.33570E-01
  0.89278E-02
 -0.43991E-02
  0.12842E-01
 -0.63040E-01
 -0.56902E-01
 -0.51090E-01
 -0.46701E-01
  0.26305E-02
  0.23518E-02
  0.16160E-01
  0.56850E-02
 -0.37617E-01
 -0.33811E-01
 -0.39304E-01
 -0.28411E-01
  0.70694E-02
  0.13518E-01
  0.14499E-01
  0.47951E-02
  0.51454E-02
  0.56699E-02
 -0.31184E-01
 -0.22379E-01
 -0.22362E-01
 -0.16447E-01
 -0.56619E-02
  0.14862E-01
  0.46947E-02
  0.44458E-02
  0.38523E-02
 -0.10550E-02
  0.16489E-02
  0.16243E-01
  0.26472E-02
  0.63289E-02
  0.38485E-02
  0.60482E-02
  0.75253E-02
 -0.45475E-01
 -0.32835E-01
 -0.23531E-01
 -0.26022E-01
 -0.14551E-01
  0.85756E-02
  0.53055E-02
  0.68279E-02
 -0.62683E-02
  0.40349E-02
 -0.24175E-03
  0.13026E-01
  0.13033E-01
  0.12977E-01
  0.11542E-01
  0.11364E-01
  0.34309E-02
  0.13136E-02
  0.65012E-02
  0.57404E-02
  0.61874E-02
  0.50303E-02
  0.73013E-02
 -0.25481E-02
  0.18427E-01
  0.19635E-01
 -0.23703E-01
  0.36662E-02
  0.35643E-02
  0.39799E-02
  0.77429E-02
 -0.12737E-01
 -0.85712E-02
  0.18998E-01
  0.20341E-01
  0.19228E-01
  0.20357E-01
  0.55740E-02
  0.13500E-01
  0.13289E-01
  0.13856E-01
  0.13662E-01
  0.14180E-01
 -0.15911E-01
  0.98709E-02
  0.10684E-01
  0.71121E-02
  0.70228E-02
 -0.39248E-01
  0.16452E-01
  0.15867E-01
  0.10878E-01
  0.11561E-01
  0.11419E-01
  0.12136E-01
  0.12037E-01
  0.12619E-01
  0.12588E-01
  0.13012E-01
  0.13025E-01
  0.13269E-01
  0.13329E-01
  0.13428E-01
  0.13557E-01
  0.13520E-01
  0.13385E-01
  0.13262E-01
  0.71758E-02
  0.14962E-01
  0.15904E-01
  0.15235E-01
  0.16510E-01
  0.17300E-01
  0.18954E-01
  0.43833E-02
  0.12424E-01
  0.72011E-02
  0.12682E-01
  0.13715E-01
  0.13570E-01
  0.13814E-01
  0.67598E-02
  0.65133E-02
  0.45243E-02
  0.10140E-01
  0.12804E-01
  0.68972E-02
  0.14537E-01
  0.86743E-02
  0.84685E-02
  0.80040E-02
 -0.68516E-02
  0.79747E-02
 -0.63112E-02
 -0.77576E-02
 -0.63954E-01
 -0.60543E-01
 -0.59597E-01
  0.19824E-01
 -0.25347E-01
 -0.14137E-01
  0.61570E-02
 -0.40252E-01
 -0.15196E-01
 -0.94870E-02
 -0.75468E-02
 -0.12252E-01
  0.11736E-01
  0.83094E-02
  0.89707E-02
  0.99645E-02
  0.38002E-02
  0.42485E-02
  0.31471E-02
 -0.12644E-01
 -0.47694E-02
 -0.90155E-02
 -0.58923E-02
 -0.99338E-02
 -0.82841E-02
  0.14030E-01
  0.14470E-01
  0.14621E-01
  0.14857E-01
  0.15014E-01
  0.14765E-01
  0.15198E-01
  0.15315E-01
  0.13607E-01
  0.64624E-02
  0.53601E-02
  0.49676E-02
  0.50528E-02
  0.11021E-01
  0.96362E-02
  0.91456E-02
  0.78089E-02
  0.33806E-02
  0.32260E-02
  0.22494E-02
  0.36153E-02
  0.13274E-01
  0.12954E-01
  0.67143E-02
  0.19603E-01
 -0.38542E-01
 -0.28143E-01
 -0.88042E-03
 -0.41266E-02
  0.19414E-02
 -0.10905E-01
  0.76713E-02
  0.71440E-02
 -0.17732E-01
  0.95255E-02
  0.47369E-02
  0.44803E-02
  0.31966E-02
  0.23806E-02
  0.10205E-02
  0.15030E-02
  0.28307E-02
  0.23166E-02
  0.35428E-02
  0.55445E-02
  0.69994E-02
  0.43503E-02
 -0.25242E-01
 -0.24189E-01
 -0.26684E-01
  0.66181E-02
  0.71397E-02
 -0.12667E-01
 -0.97342E-02
 -0.19763E-01
  0.18054E-01
  0.18188E-01
  0.17770E-01
  0.41231E-02
  0.46045E-02
 -0.56742E-02
 -0.69409E-02
 -0.45501E-02
  0.54212E-02
  0.50074E-02
  0.46246E-02
  0.15618E-02
 -0.39925E-02
 -0.11853E-02
 -0.39306E-02
 -0.16671E-02
 -0.28067E-02
 -0.36246E-03
  0.17184E-02
  0.25673E-02
 -0.69052E-03
  0.44991E-02
  0.21967E-02
 -0.23823E-02
 -0.49296E-02
 -0.72888E-02
  0.12783E-01
  0.12013E-01
  0.34031E-02
  0.44199E-02
 -0.37733E-02
 -0.65346E-02
 -0.39944E-02
 -0.42991E-02
  0.46090E-02
  0.16066E-01
  0.15849E-01
  0.15695E-01
  0.37180E-02
 -0.22288E-01
 -0.22885E-01
  0.42458E-02
 -0.12206E-01
  0.43158E-02
  0.41679E-02
  0.38627E-02
  0.16403E-02
  0.19722E-02
 -0.25891E-04
  0.74627E-02
  0.14861E-01
 -0.31279E-02
 -0.43946E-02
  0.56643E-03
 -0.56189E-02
  0.81208E-02
  0.11933E-01
  0.11620E-01
  0.82102E-02
 -0.16312E-01
  0.22105E-01
  0.70392E-02
  0.12607E-01
  0.57880E-02
  0.62529E-02
  0.68560E-02
  0.67832E-02
  0.13750E-01
  0.42591E-02
  0.45833E-02
 -0.38894E-02
  0.56453E-02
  0.31662E-02
  0.13075E-01
  0.13281E-01
  0.13314E-01
 -0.16672E-01
 -0.39668E-02
 -0.58251E-02
  0.46335E-02
  0.46950E-02
  0.51169E-02
  0.15895E-01
  0.15273E-01
  0.10775E-03
  0.38859E-02
 -0.22970E-01
  0.79791E-02
  0.85375E-02
  0.74176E-02
  0.13372E-01
  0.10493E-01
  0.90823E-02
  0.12368E-01
  0.14206E-01
  0.15679E-01
 -0.65883E-02
  0.10897E-02
  0.76413E-02
  0.15685E-01
 -0.56300E-01
 -0.54221E-01
 -0.53489E-01
  0.73483E-02
  0.73958E-02
  0.15265E-01
 -0.73410E-02
 -0.70907E-02
  0.47781E-02
  0.44749E-02
  0.44395E-02
  0.43926E-02
 -0.12411E-01
 -0.10072E-01
  0.38006E-02
  0.28130E-02
  0.79054E-02
  0.72414E-02
  0.87023E-02
  0.40042E-02
  0.42368E-02
  0.14540E-01
  0.15463E-01
  0.15531E-01
  0.15467E-01
  0.15611E-01
  0.15674E-01
  0.15668E-01
  0.15684E-01
  0.15656E-01
  0.67843E-02
  0.44483E-02
 -0.77100E-02
  0.44698E-02
  0.45348E-02
  0.47159E-02
  0.96704E-02
  0.39249E-02
  0.35873E-02
  0.53916E-02
  0.13891E-01
  0.21713E-02
 -0.10778E-01
  0.10829E-01
  0.21775E-02
 -0.97115E-02
 -0.70091E-02
  0.63970E-02
  0.67685E-02
  0.15688E-01
  0.15721E-01
 -0.51470E-01
 -0.97838E-02
 -0.84484E-02
 -0.40185E-02
  0.51081E-02
  0.14488E-01
 -0.13103E-01
 -0.82100E-02
 -0.81631E-02
 -0.42997E-02
 -0.45006E-02
 -0.79735E-02
 -0.48281E-01
 -0.40918E-01
  0.14428E-01
  0.14542E-01
  0.40304E-02
  0.29983E-02
  0.11862E-01
  0.43003E-02
  0.64910E-02
  0.13380E-01
  0.15445E-01
  0.53138E-02
  0.15723E-01
  0.37799E-02
  0.79404E-02
  0.10647E-01
  0.96631E-02
  0.43951E-02
  0.51332E-02
  0.52622E-02
  0.62230E-02
  0.61042E-02
  0.68793E-02
  0.65278E-02
 -0.22100E-01
  0.60020E-02
  0.65619E-02
  0.14702E-01
 -0.18926E-01
  0.72876E-02
  0.49348E-02
  0.51661E-02
  0.25199E-02
  0.14098E-01
  0.80377E-02
  0.84345E-02
  0.86004E-02
  0.88040E-02
  0.12524E-01
 -0.12128E-02
  0.12004E-01
  0.52878E-02
 -0.29812E-01
  0.14835E-01
  0.13519E-01
  0.15556E-01
  0.48267E-02
  0.51601E-02
  0.36439E-02
  0.44375E-02
  0.48515E-02
  0.46798E-02
  0.50561E-02
  0.46394E-02
  0.49234E-02
  0.54050E-02
  0.13723E-01
  0.18463E-01
  0.20043E-01
  0.17087E-01
  0.47046E-02
  0.74611E-02
  0.11096E-01
  0.11916E-01
  0.12532E-01
 -0.86436E-02
 -0.49747E-02
 -0.59964E-01
 -0.13080E-01
 -0.17030E-02
 -0.17806E-01
  0.13951E-01
  0.38575E-02
  0.44387E-02
  0.70328E-02
 -0.93110E-03
  0.75649E-02
  0.21741E-01
 -0.15325E-01
  0.14194E-01
 -0.41591E-02
  0.21264E-01
  0.21619E-01
  0.19490E-01
  0.20184E-01
  0.22016E-01
  0.20201E-01
  0.18743E-01
 -0.61642E-02
  0.96260E-02
  0.86560E-02
  0.45831E-02
  0.13300E-01
  0.61838E-02
  0.78951E-02
  0.95116E-02
  0.31859E-02
  0.75763E-03
  0.99656E-02
 -0.14264E-01
 -0.57914E-02
 -0.48282E-01
 -0.45266E-01
 -0.38349E-01
 -0.52517E-01
 -0.30903E-01
  0.37660E-02
  0.13819E-01
  0.12770E-01
  0.15497E-01
  0.16509E-01
  0.18036E-01
  0.16985E-01
 -0.16689E-01
  0.70934E-03
  0.10533E-01
  0.68773E-02
  0.43793E-02
  0.14033E-01
  0.21634E-01
  0.65316E-02
 -0.58237E-02
  0.14771E-01
  0.13549E-01
  0.14742E-01
  0.14325E-01
 -0.27262E-01
  0.46130E-02
 -0.22507E-03
 -0.32001E-01
 -0.25062E-01
  0.15473E-01
  0.15324E-01
  0.15196E-01
  0.13300E-01
 -0.65870E-02
  0.24803E-02
  0.23658E-01
  0.24483E-01
  0.13958E-02
  0.16881E-01
  0.12775E-01
 -0.24502E-01
  0.34474E-02
  0.24179E-02
  0.89860E-03
 -0.96409E-03
 -0.10530E-03
  0.28250E-02
  0.76967E-02
  0.85794E-02
  0.75388E-02
  0.89688E-02
  0.93379E-02
  0.14516E-01
  0.16156E-01
  0.17801E-01
  0.17700E-01
 -0.59743E-02
 -0.10531E-01
 -0.12296E-01
  0.48542E-02
  0.47392E-02
  0.45000E-02
  0.52574E-02
  0.15442E-01
  0.46500E-02
 -0.22582E-01
 -0.80543E-02
 -0.89354E-02
 -0.15406E-01
 -0.12578E-01
  0.13613E-01
  0.13199E-01
  0.12981E-01
  0.13109E-01
  0.12835E-01
  0.13063E-01
  0.16400E-01
 -0.16034E-02
  0.68606E-03
  0.15230E-01
  0.15210E-01
  0.77653E-02
  0.14068E-02
  0.29529E-02
  0.15393E-01
  0.96818E-02
  0.11022E-01
 -0.99012E-02
  0.18467E-02
 -0.85103E-02
 -0.16203E-01
  0.15642E-01
 -0.39731E-02
  0.55394E-02
  0.54130E-02
  0.62326E-02
  0.66492E-02
 -0.30479E-02
  0.56816E-02
  0.13952E-01
  0.13974E-01
  0.16304E-02
  0.74729E-02
  0.16964E-01
 -0.69997E-02
  0.18404E-01
  0.19807E-01
 -0.14550E-01
  0.13646E-01
  0.14515E-01
  0.14751E-01
  0.14988E-01
  0.48115E-02
  0.15752E-01
  0.43564E-02
  0.13454E-01
  0.12719E-01
  0.12659E-01
 -0.16059E-01
 -0.20861E-01
  0.56423E-03
 -0.78621E-03
  0.24448E-02
  0.55221E-02
  0.59981E-02
 -0.88192E-03
  0.77795E-02
  0.89592E-02
  0.17288E-01
  0.66980E-02
  0.64313E-02
  0.11309E-01
  0.10980E-01
  0.11984E-01
  0.12243E-01
  0.12870E-01
  0.52316E-02
  0.89980E-02
  0.61682E-02
  0.62244E-02
  0.72494E-02
  0.45117E-02
  0.43504E-02
 -0.49047E-02
 -0.65726E-02
  0.76412E-02
  0.68007E-02
  0.81751E-02
  0.89776E-02
  0.94471E-02
  0.43989E-03
  0.11294E-01
  0.84376E-02
  0.13053E-01
  0.13171E-01
  0.19457E-01
 -0.96866E-02
  0.45671E-02
  0.43314E-02
  0.15640E-01
 -0.13028E-01
  0.53446E-02
  0.62176E-02
  0.66446E-02
  0.63339E-02
  0.64309E-02
  0.58544E-02
  0.58241E-02
  0.57166E-02
 -0.62904E-01
 -0.39894E-02
  0.57558E-02
  0.15655E-01
  0.15346E-01
  0.15828E-01
  0.86551E-02
  0.53411E-02
  0.39043E-02
  0.15560E-01
  0.13461E-01
  0.88581E-02
  0.88987E-02
  0.83176E-02
 -0.29255E-02
 -0.54561E-02
 -0.81103E-02
 -0.45033E-02
  0.18519E-01
 -0.83988E-02
 -0.90768E-02
 -0.37182E-02
 -0.34940E-02
 -0.35544E-02
  0.43967E-02
  0.56297E-02
 -0.31274E-02
 -0.20629E-02
 -0.24415E-02
  0.72983E-02
  0.64158E-02
  0.75429E-02
  0.66497E-02
  0.14402E-01
  0.89390E-03
  0.70555E-02
  0.17328E-01
  0.46161E-02
  0.53249E-02
  0.15668E-02
 -0.75737E-03
 -0.12656E-02
 -0.12963E-02
 -0.19666E-02
  0.51004E-02
  0.47172E-02
  0.44631E-02
  0.32427E-02
  0.43071E-02
  0.58286E-02
  0.62980E-02
  0.79907E-02
  0.39529E-02
  0.33075E-02
 -0.23865E-01
  0.37519E-02
  0.35630E-02
  0.11336E-01
  0.73040E-02
 -0.20417E-02
 -0.23586E-03
  0.52478E-02
 -0.11254E-01
 -0.29061E-02
  0.50116E-02
  0.60647E-02
 -0.13857E-03
 -0.39291E-02
 -0.64461E-04
  0.68665E-02
 -0.80000E-02
 -0.83079E-02
 -0.20083E-03
  0.43470E-02
 -0.27890E-02
  0.98084E-02
 -0.81047E-02
  0.52273E-02
 -0.46127E-02
 -0.75368E-02
 -0.40651E-02
  0.58444E-02
 -0.74046E-02
 -0.11810E-01
 -0.51013E-02
  0.74745E-02
 -0.24974E-03
 -0.73177E-02
 -0.24674E-01
  0.71474E-02
  0.75342E-02
  0.11378E-01
  0.27227E-02
  0.34184E-02
 -0.10606E-01
 -0.14683E-02
  0.51746E-02
  0.43953E-02
 -0.47583E-02
  0.14081E-02
  0.79609E-02
  0.54998E-02
 -0.14280E-02
 -0.24813E-01
 -0.23007E-01
  0.43286E-02
 -0.24589E-02
  0.53964E-02
  0.45991E-02
 -0.72887E-02
  0.30238E-02
 -0.46511E-02
 -0.17129E-01
  0.70399E-02
 -0.18999E-02
  0.15270E-01
  0.25308E-03
 -0.24299E-01
  0.12279E-01
 -0.40175E-02
  0.48261E-02
  0.44892E-02
  0.84717E-02
 -0.61458E-02
  0.48893E-02
  0.15668E-01
 -0.66013E-02
  0.18765E-01
  0.86789E-02
  0.23809E-01
  0.18916E-01
  0.78436E-02
  0.17302E-01
 -0.21164E-01
 -0.23061E-01
  0.93511E-02
  0.12332E-01
  0.75082E-02
  0.16714E-01
 -0.66204E-02
  0.67049E-02
 -0.37589E-01
 -0.46794E-01
 -0.10871E-01
  0.12396E-01
 -0.81704E-02
 -0.49561E-01
 -0.86066E-02
  0.14354E-02
  0.39726E-02
 -0.46876E-01
 -0.47213E-01