# vtk DataFile Version 2.0
Unstructured Grid UFVM-ECOMOD
ASCII
DATASET UNSTRUCTURED_GRID
 POINTS         1724  float
  0.00000E+00  0.00000E+00  0.00000E+00
  0.40000E+01  0.00000E+00  0.00000E+00
  0.40000E+01  0.20000E+01  0.00000E+00
  0.00000E+00  0.20000E+01  0.00000E+00
  0.15750E+01  0.10287E+01  0.00000E+00
  0.15677E+01  0.97091E+00  0.00000E+00
  0.15461E+01  0.91674E+00  0.00000E+00
  0.15118E+01  0.86961E+00  0.00000E+00
  0.14667E+01  0.83248E+00  0.00000E+00
  0.14138E+01  0.80767E+00  0.00000E+00
  0.13563E+01  0.79675E+00  0.00000E+00
  0.12979E+01  0.80041E+00  0.00000E+00
  0.12423E+01  0.81842E+00  0.00000E+00
  0.11929E+01  0.84963E+00  0.00000E+00
  0.11529E+01  0.89210E+00  0.00000E+00
  0.11247E+01  0.94315E+00  0.00000E+00
  0.11102E+01  0.99958E+00  0.00000E+00
  0.11102E+01  0.10578E+01  0.00000E+00
  0.11247E+01  0.11143E+01  0.00000E+00
  0.11529E+01  0.11653E+01  0.00000E+00
  0.11929E+01  0.12078E+01  0.00000E+00
  0.12423E+01  0.12390E+01  0.00000E+00
  0.12979E+01  0.12570E+01  0.00000E+00
  0.13563E+01  0.12607E+01  0.00000E+00
  0.14138E+01  0.12497E+01  0.00000E+00
  0.14667E+01  0.12249E+01  0.00000E+00
  0.15118E+01  0.11878E+01  0.00000E+00
  0.15461E+01  0.11407E+01  0.00000E+00
  0.15677E+01  0.10865E+01  0.00000E+00
  0.10000E+00  0.00000E+00  0.00000E+00
  0.20000E+00  0.00000E+00  0.00000E+00
  0.30000E+00  0.00000E+00  0.00000E+00
  0.40000E+00  0.00000E+00  0.00000E+00
  0.50000E+00  0.00000E+00  0.00000E+00
  0.60000E+00  0.00000E+00  0.00000E+00
  0.70000E+00  0.00000E+00  0.00000E+00
  0.80000E+00  0.00000E+00  0.00000E+00
  0.90000E+00  0.00000E+00  0.00000E+00
  0.10000E+01  0.00000E+00  0.00000E+00
  0.11000E+01  0.00000E+00  0.00000E+00
  0.12000E+01  0.00000E+00  0.00000E+00
  0.13000E+01  0.00000E+00  0.00000E+00
  0.14000E+01  0.00000E+00  0.00000E+00
  0.15000E+01  0.00000E+00  0.00000E+00
  0.16000E+01  0.00000E+00  0.00000E+00
  0.17000E+01  0.00000E+00  0.00000E+00
  0.18000E+01  0.00000E+00  0.00000E+00
  0.19000E+01  0.00000E+00  0.00000E+00
  0.20000E+01  0.00000E+00  0.00000E+00
  0.21000E+01  0.00000E+00  0.00000E+00
  0.22000E+01  0.00000E+00  0.00000E+00
  0.23000E+01  0.00000E+00  0.00000E+00
  0.24000E+01  0.00000E+00  0.00000E+00
  0.25000E+01  0.00000E+00  0.00000E+00
  0.26000E+01  0.00000E+00  0.00000E+00
  0.27000E+01  0.00000E+00  0.00000E+00
  0.28000E+01  0.00000E+00  0.00000E+00
  0.29000E+01  0.00000E+00  0.00000E+00
  0.30000E+01  0.00000E+00  0.00000E+00
  0.31000E+01  0.00000E+00  0.00000E+00
  0.32000E+01  0.00000E+00  0.00000E+00
  0.33000E+01  0.00000E+00  0.00000E+00
  0.34000E+01  0.00000E+00  0.00000E+00
  0.35000E+01  0.00000E+00  0.00000E+00
  0.36000E+01  0.00000E+00  0.00000E+00
  0.37000E+01  0.00000E+00  0.00000E+00
  0.38000E+01  0.00000E+00  0.00000E+00
  0.39000E+01  0.00000E+00  0.00000E+00
  0.40000E+01  0.10000E+00  0.00000E+00
  0.40000E+01  0.20000E+00  0.00000E+00
  0.40000E+01  0.30000E+00  0.00000E+00
  0.40000E+01  0.40000E+00  0.00000E+00
  0.40000E+01  0.50000E+00  0.00000E+00
  0.40000E+01  0.60000E+00  0.00000E+00
  0.40000E+01  0.70000E+00  0.00000E+00
  0.40000E+01  0.80000E+00  0.00000E+00
  0.40000E+01  0.90000E+00  0.00000E+00
  0.40000E+01  0.10000E+01  0.00000E+00
  0.40000E+01  0.11000E+01  0.00000E+00
  0.40000E+01  0.12000E+01  0.00000E+00
  0.40000E+01  0.13000E+01  0.00000E+00
  0.40000E+01  0.14000E+01  0.00000E+00
  0.40000E+01  0.15000E+01  0.00000E+00
  0.40000E+01  0.16000E+01  0.00000E+00
  0.40000E+01  0.17000E+01  0.00000E+00
  0.40000E+01  0.18000E+01  0.00000E+00
  0.40000E+01  0.19000E+01  0.00000E+00
  0.39000E+01  0.20000E+01  0.00000E+00
  0.38000E+01  0.20000E+01  0.00000E+00
  0.37000E+01  0.20000E+01  0.00000E+00
  0.36000E+01  0.20000E+01  0.00000E+00
  0.35000E+01  0.20000E+01  0.00000E+00
  0.34000E+01  0.20000E+01  0.00000E+00
  0.33000E+01  0.20000E+01  0.00000E+00
  0.32000E+01  0.20000E+01  0.00000E+00
  0.31000E+01  0.20000E+01  0.00000E+00
  0.30000E+01  0.20000E+01  0.00000E+00
  0.29000E+01  0.20000E+01  0.00000E+00
  0.28000E+01  0.20000E+01  0.00000E+00
  0.27000E+01  0.20000E+01  0.00000E+00
  0.26000E+01  0.20000E+01  0.00000E+00
  0.25000E+01  0.20000E+01  0.00000E+00
  0.24000E+01  0.20000E+01  0.00000E+00
  0.23000E+01  0.20000E+01  0.00000E+00
  0.22000E+01  0.20000E+01  0.00000E+00
  0.21000E+01  0.20000E+01  0.00000E+00
  0.20000E+01  0.20000E+01  0.00000E+00
  0.19000E+01  0.20000E+01  0.00000E+00
  0.18000E+01  0.20000E+01  0.00000E+00
  0.17000E+01  0.20000E+01  0.00000E+00
  0.16000E+01  0.20000E+01  0.00000E+00
  0.15000E+01  0.20000E+01  0.00000E+00
  0.14000E+01  0.20000E+01  0.00000E+00
  0.13000E+01  0.20000E+01  0.00000E+00
  0.12000E+01  0.20000E+01  0.00000E+00
  0.11000E+01  0.20000E+01  0.00000E+00
  0.10000E+01  0.20000E+01  0.00000E+00
  0.90000E+00  0.20000E+01  0.00000E+00
  0.80000E+00  0.20000E+01  0.00000E+00
  0.70000E+00  0.20000E+01  0.00000E+00
  0.60000E+00  0.20000E+01  0.00000E+00
  0.50000E+00  0.20000E+01  0.00000E+00
  0.40000E+00  0.20000E+01  0.00000E+00
  0.30000E+00  0.20000E+01  0.00000E+00
  0.20000E+00  0.20000E+01  0.00000E+00
  0.10000E+00  0.20000E+01  0.00000E+00
  0.00000E+00  0.19000E+01  0.00000E+00
  0.00000E+00  0.18000E+01  0.00000E+00
  0.00000E+00  0.17000E+01  0.00000E+00
  0.00000E+00  0.16000E+01  0.00000E+00
  0.00000E+00  0.15000E+01  0.00000E+00
  0.00000E+00  0.14000E+01  0.00000E+00
  0.00000E+00  0.13000E+01  0.00000E+00
  0.00000E+00  0.12000E+01  0.00000E+00
  0.00000E+00  0.11000E+01  0.00000E+00
  0.00000E+00  0.10000E+01  0.00000E+00
  0.00000E+00  0.90000E+00  0.00000E+00
  0.00000E+00  0.80000E+00  0.00000E+00
  0.00000E+00  0.70000E+00  0.00000E+00
  0.00000E+00  0.60000E+00  0.00000E+00
  0.00000E+00  0.50000E+00  0.00000E+00
  0.00000E+00  0.40000E+00  0.00000E+00
  0.00000E+00  0.30000E+00  0.00000E+00
  0.00000E+00  0.20000E+00  0.00000E+00
  0.00000E+00  0.10000E+00  0.00000E+00
  0.15713E+01  0.99981E+00  0.00000E+00
  0.15569E+01  0.94382E+00  0.00000E+00
  0.15290E+01  0.89318E+00  0.00000E+00
  0.14892E+01  0.85104E+00  0.00000E+00
  0.14402E+01  0.82007E+00  0.00000E+00
  0.13850E+01  0.80221E+00  0.00000E+00
  0.13271E+01  0.79858E+00  0.00000E+00
  0.12701E+01  0.80941E+00  0.00000E+00
  0.12176E+01  0.83402E+00  0.00000E+00
  0.11729E+01  0.87086E+00  0.00000E+00
  0.11388E+01  0.91762E+00  0.00000E+00
  0.11175E+01  0.97136E+00  0.00000E+00
  0.11102E+01  0.10287E+01  0.00000E+00
  0.11175E+01  0.10860E+01  0.00000E+00
  0.11388E+01  0.11398E+01  0.00000E+00
  0.11729E+01  0.11865E+01  0.00000E+00
  0.12176E+01  0.12234E+01  0.00000E+00
  0.12701E+01  0.12480E+01  0.00000E+00
  0.13271E+01  0.12588E+01  0.00000E+00
  0.13850E+01  0.12552E+01  0.00000E+00
  0.14402E+01  0.12373E+01  0.00000E+00
  0.14892E+01  0.12064E+01  0.00000E+00
  0.15290E+01  0.11642E+01  0.00000E+00
  0.15569E+01  0.11136E+01  0.00000E+00
  0.15713E+01  0.10576E+01  0.00000E+00
  0.15994E+01  0.10133E+01  0.00000E+00
  0.15863E+01  0.11089E+01  0.00000E+00
  0.25478E+01  0.10053E+00  0.00000E+00
  0.25434E+01  0.19142E+01  0.00000E+00
  0.11238E+01  0.89266E+00  0.00000E+00
  0.11061E+01  0.11423E+01  0.00000E+00
  0.15575E+01  0.89126E+00  0.00000E+00
  0.10894E+01  0.97917E+00  0.00000E+00
  0.15393E+01  0.11910E+01  0.00000E+00
  0.11627E+01  0.12175E+01  0.00000E+00
  0.14962E+01  0.82262E+00  0.00000E+00
  0.29512E+01  0.95010E-01  0.00000E+00
  0.29494E+01  0.19117E+01  0.00000E+00
  0.39186E+01  0.10466E+01  0.00000E+00
  0.11913E+01  0.82197E+00  0.00000E+00
  0.12788E+01  0.78594E+00  0.00000E+00
  0.21500E+01  0.86600E-01  0.00000E+00
  0.21472E+01  0.19005E+01  0.00000E+00
  0.14041E+01  0.78007E+00  0.00000E+00
  0.14641E+01  0.12550E+01  0.00000E+00
  0.13764E+01  0.12826E+01  0.00000E+00
  0.99450E-01  0.63780E+00  0.00000E+00
  0.92450E-01  0.13422E+01  0.00000E+00
  0.12473E+01  0.12677E+01  0.00000E+00
  0.65677E+00  0.19154E+01  0.00000E+00
  0.86110E-01  0.10467E+01  0.00000E+00
  0.75000E+00  0.86600E-01  0.00000E+00
  0.33379E+01  0.88030E-01  0.00000E+00
  0.33490E+01  0.19201E+01  0.00000E+00
  0.18500E+01  0.86600E-01  0.00000E+00
  0.18441E+01  0.19006E+01  0.00000E+00
  0.38922E+01  0.64055E+00  0.00000E+00
  0.39154E+01  0.13500E+01  0.00000E+00
  0.10564E+01  0.85180E-01  0.00000E+00
  0.94817E+00  0.19249E+01  0.00000E+00
  0.15421E+01  0.85450E-01  0.00000E+00
  0.15479E+01  0.19161E+01  0.00000E+00
  0.12386E+01  0.19130E+01  0.00000E+00
  0.45294E+00  0.85030E-01  0.00000E+00
  0.86890E-01  0.16531E+01  0.00000E+00
  0.36495E+01  0.78620E-01  0.00000E+00
  0.36510E+01  0.19107E+01  0.00000E+00
  0.10846E+01  0.10423E+01  0.00000E+00
  0.15860E+01  0.94842E+00  0.00000E+00
  0.13392E+01  0.77093E+00  0.00000E+00
  0.13108E+01  0.12864E+01  0.00000E+00
  0.87300E-01  0.35008E+00  0.00000E+00
  0.34468E+00  0.19176E+01  0.00000E+00
  0.39135E+01  0.16499E+01  0.00000E+00
  0.39252E+01  0.34254E+00  0.00000E+00
  0.13680E+01  0.88360E-01  0.00000E+00
  0.88350E-01  0.84594E+00  0.00000E+00
  0.23513E+01  0.77830E-01  0.00000E+00
  0.23488E+01  0.19154E+01  0.00000E+00
  0.27481E+01  0.80910E-01  0.00000E+00
  0.31480E+01  0.84140E-01  0.00000E+00
  0.31513E+01  0.19149E+01  0.00000E+00
  0.27502E+01  0.19198E+01  0.00000E+00
  0.39134E+01  0.85000E+00  0.00000E+00
  0.25071E+00  0.86200E-01  0.00000E+00
  0.91130E-01  0.18412E+01  0.00000E+00
  0.38461E+01  0.84360E-01  0.00000E+00
  0.38408E+01  0.19092E+01  0.00000E+00
  0.97440E-01  0.15849E+00  0.00000E+00
  0.15988E+01  0.10458E+01  0.00000E+00
  0.16261E+01  0.10305E+01  0.00000E+00
  0.16281E+01  0.99836E+00  0.00000E+00
  0.16554E+01  0.10148E+01  0.00000E+00
  0.16578E+01  0.98164E+00  0.00000E+00
  0.16863E+01  0.99914E+00  0.00000E+00
  0.16884E+01  0.96239E+00  0.00000E+00
  0.17222E+01  0.98417E+00  0.00000E+00
  0.17231E+01  0.93952E+00  0.00000E+00
  0.17605E+01  0.96435E+00  0.00000E+00
  0.17576E+01  0.10098E+01  0.00000E+00
  0.17991E+01  0.98970E+00  0.00000E+00
  0.17625E+01  0.91931E+00  0.00000E+00
[...]
 POINT_DATA         1724
  
 SCALARS WL      float 1
 LOOKUP_TABLE default
  0.22180E-01
  0.11911E-02
  0.19531E-02
  0.32487E-01
 -0.36229E-01
 -0.28922E-01
 -0.18462E-01
 -0.65936E-02
  0.39672E-04
  0.25232E-03
  0.21557E-02
 -0.67374E-02
 -0.34127E-02
  0.65040E-02
  0.23758E-01
  0.35942E-01
  0.43199E-01
  0.43677E-01
  0.37458E-01
  0.25935E-01
  0.80006E-02
 -0.13029E-01
 -0.35373E-01
 -0.56224E-01
 -0.62010E-01
 -0.54708E-01
 -0.50341E-01
 -0.46100E-01
 -0.40385E-01
  0.21893E-01
  0.21439E-01
  0.20864E-01
  0.20141E-01
  0.19188E-01
  0.17952E-01
  0.16417E-01
  0.14588E-01
  0.12302E-01
  0.96020E-02
  0.70848E-02
  0.45076E-02
  0.22174E-02
  0.10452E-02
  0.66757E-03
  0.10240E-02
  0.17830E-02
  0.25856E-02
  0.35265E-02
  0.45120E-02
  0.55184E-02
  0.62966E-02
  0.69262E-02
  0.67634E-02
  0.61627E-02
  0.50800E-02
  0.39900E-02
  0.30183E-02
  0.21511E-02
  0.17801E-02
  0.17183E-02
  0.19256E-02
  0.25589E-02
  0.31890E-02
  0.38653E-02
  0.40345E-02
  0.36387E-02
  0.31305E-02
  0.21764E-02
  0.00000E+00
  0.00000E+00
  0.00000E+00
  0.00000E+00
  0.00000E+00
  0.00000E+00
  0.00000E+00
  0.00000E+00
  0.00000E+00
  0.00000E+00
  0.00000E+00
  0.00000E+00
  0.00000E+00
  0.00000E+00
  0.00000E+00
  0.00000E+00
  0.00000E+00
  0.00000E+00
  0.00000E+00
  0.33884E-02
  0.61221E-02
  0.93329E-02
  0.12127E-01
  0.14402E-01
  0.16102E-01
  0.16384E-01
  0.15505E-01
  0.13732E-01
  0.11845E-01
  0.10887E-01
  0.11502E-01
  0.13208E-01
  0.15527E-01
  0.17511E-01
  0.18776E-01
  0.19265E-01
  0.19160E-01
  0.18612E-01
  0.17637E-01
  0.16365E-01
  0.14872E-01
  0.13377E-01
  0.12338E-01
  0.12155E-01
  0.12982E-01
  0.14803E-01
  0.17295E-01
  0.20094E-01
  0.22937E-01
  0.25650E-01
  0.28032E-01
  0.30093E-01
  0.31807E-01
  0.33196E-01
  0.34091E-01
  0.34386E-01
  0.34073E-01
  0.33275E-01
  0.32213E-01
  0.31688E-01
  0.31046E-01
  0.30226E-01
  0.29547E-01
  0.28684E-01
  0.27970E-01
  0.27298E-01
  0.26698E-01
  0.26127E-01
  0.25567E-01
  0.25024E-01
  0.24451E-01
  0.23939E-01
  0.23461E-01
  0.23043E-01
  0.22700E-01
  0.22442E-01
  0.22272E-01
 -0.33292E-01
 -0.23926E-01
 -0.11990E-01
 -0.18516E-02
 -0.26422E-03
  0.21798E-02
 -0.22057E-02
 -0.84430E-02
 -0.63960E-03
  0.15699E-01
  0.30607E-01
  0.40874E-01
  0.44192E-01
  0.41823E-01
  0.32689E-01
  0.17291E-01
 -0.15323E-02
 -0.23531E-01
 -0.47145E-01
 -0.60679E-01
 -0.59549E-01
 -0.51867E-01
 -0.48993E-01
 -0.42782E-01
 -0.38397E-01
 -0.34138E-01
 -0.41175E-01
  0.58044E-02
  0.16690E-01
  0.28692E-01
  0.35136E-01
 -0.14550E-01
  0.41891E-01
 -0.49834E-01
  0.15902E-01
 -0.15125E-02
  0.26256E-02
  0.11169E-01
 -0.65394E-02
  0.51340E-02
 -0.66241E-02
  0.56919E-02
  0.18951E-01
  0.12343E-02
 -0.55029E-01
 -0.54026E-01
  0.23978E-01
  0.28490E-01
 -0.13848E-01
  0.30944E-01
  0.26392E-01
  0.15615E-01
  0.34887E-02
  0.16273E-01
  0.30248E-02
  0.15185E-01
 -0.70567E-02
  0.26343E-02
  0.83620E-02
  0.24362E-01
  0.10787E-02
  0.11785E-01
  0.16115E-01
  0.19734E-01
  0.31175E-01
  0.41352E-02
  0.10868E-01
  0.43796E-01
 -0.25456E-01
  0.67416E-03
 -0.35842E-01
  0.22655E-01
  0.34238E-01
  0.44699E-02
  0.17273E-02
  0.16988E-02
  0.25208E-01
  0.68443E-02
  0.19164E-01
  0.37631E-02
  0.24355E-02
  0.14791E-01
  0.11959E-01
 -0.11131E-01
  0.21225E-01
  0.32644E-01
  0.29077E-02
  0.50412E-02
  0.22075E-01
 -0.36872E-01
 -0.35532E-01
 -0.33168E-01
 -0.35212E-01
 -0.32524E-01
 -0.34766E-01
 -0.31198E-01
 -0.33334E-01
 -0.28334E-01
 -0.30139E-01
 -0.33664E-01
 -0.29783E-01
 -0.24357E-01
 -0.30945E-01
 -0.26806E-01
 -0.25062E-01
 -0.21851E-01
 -0.17816E-01
 -0.16116E-01
 -0.20869E-01
 -0.16631E-01
 -0.22555E-01
 -0.19838E-01
 -0.26456E-01
 -0.24109E-01
 -0.29985E-01
 -0.25458E-01
 -0.10470E-01
 -0.28174E-01
 -0.21006E-01
 -0.17903E-01
 -0.12400E-01
 -0.30716E-01
 -0.89069E-02
 -0.48631E-02
 -0.53470E-02
 -0.72905E-03
  0.34525E-03
  0.23746E-02
  0.14160E-02
  0.23549E-02
  0.46899E-02
  0.29653E-02
 -0.35634E-03
 -0.17789E-02
  0.37010E-02
 -0.15269E-02
 -0.86270E-02
 -0.73251E-02
  0.75183E-03
 -0.33163E-02
  0.40308E-02
  0.11085E-02
 -0.53621E-02
 -0.60070E-03
  0.37400E-02
 -0.45973E-02
 -0.55473E-03
 -0.15614E-02
 -0.21188E-01
  0.75453E-03
  0.21670E-02
 -0.78021E-03
 -0.25219E-01
 -0.26213E-01
 -0.17948E-01
 -0.17911E-01
 -0.98519E-02
 -0.93321E-02
  0.26873E-02
  0.59213E-03
  0.55039E-02
 -0.37991E-02
 -0.14126E-01
 -0.69500E-02
 -0.86755E-02
 -0.39145E-02
 -0.35263E-02
  0.47190E-02
  0.79473E-02
 -0.98302E-03
  0.57902E-03
 -0.20484E-01
  0.96056E-03
  0.26592E-02
  0.20647E-02
  0.33585E-02
  0.44308E-02
  0.45655E-02
  0.59125E-02
  0.53661E-02
  0.47088E-02
  0.52599E-02
 -0.27508E-02
  0.43551E-03
  0.20500E-02
  0.36043E-02
  0.52430E-02
 -0.11740E-02
 -0.15983E-01
  0.49507E-02
  0.54603E-02
 -0.10623E-01
  0.55305E-02
  0.63918E-02
  0.96324E-02
  0.10738E-01
  0.11965E-01
  0.50903E-02
  0.57727E-02
  0.58556E-02
  0.64310E-02
  0.57115E-02
  0.72532E-02
  0.22830E-02
  0.63287E-02
  0.70861E-02
  0.68126E-02
  0.76081E-02
  0.70108E-02
  0.80681E-02
  0.84624E-02
  0.93544E-02
  0.97113E-02
  0.10968E-01
  0.11546E-01
  0.13117E-01
  0.12085E-01
  0.14278E-01
  0.15583E-01
  0.16592E-01
  0.18248E-01
  0.18833E-01
  0.20751E-01
  0.20846E-01
  0.22878E-01
  0.22495E-01
  0.24578E-01
  0.23857E-01
  0.25827E-01
  0.24888E-01
  0.26611E-01
  0.23281E-01
  0.25597E-01
  0.27087E-01
  0.26046E-01
  0.27348E-01
  0.28547E-01
  0.28543E-01
  0.29832E-01
  0.29592E-01
  0.30892E-01
  0.30425E-01
  0.31628E-01
  0.31026E-01
  0.32055E-01
  0.31396E-01
  0.32159E-01
  0.31542E-01
  0.31965E-01
  0.31507E-01
  0.31535E-01
  0.30908E-01
  0.29240E-01
  0.31321E-01
  0.30936E-01
  0.19152E-01
  0.26416E-01
  0.25179E-01
  0.31019E-01
  0.31302E-01
  0.30278E-01
  0.29973E-01
  0.29016E-01
  0.28382E-01
  0.27261E-01
  0.26141E-01
  0.25006E-01
  0.23224E-01
  0.25581E-01
  0.24480E-01
  0.13068E-01
  0.31476E-01
  0.31219E-01
  0.31417E-01
  0.29764E-01
  0.26881E-01
  0.33025E-01
  0.22342E-01
  0.19783E-01
  0.28166E-01
  0.31545E-01
  0.31644E-01
  0.24890E-01
  0.23996E-01
  0.74382E-02
  0.19343E-01
  0.16216E-01
  0.24358E-01
  0.22877E-01
  0.25869E-01
  0.31197E-01
  0.31355E-01
  0.30670E-01
 -0.37040E-01
  0.23428E-01
  0.23142E-01
  0.22405E-01
  0.22317E-01
  0.21453E-01
  0.44569E-02
  0.31957E-01
  0.21546E-01
  0.12856E-01
 -0.56752E-02
 -0.11329E-01
  0.17090E-01
  0.16052E-01
  0.11901E-01
  0.12753E-01
  0.79600E-02
  0.95943E-02
  0.48033E-02
  0.71320E-02
  0.27658E-02
 -0.67584E-03
 -0.32449E-02
  0.18532E-02
 -0.24109E-02
 -0.86279E-02
 -0.66571E-02
 -0.77934E-03
 -0.37819E-02
  0.14647E-02
 -0.40274E-04
 -0.60438E-02
 -0.11139E-02
 -0.74244E-02
 -0.19395E-02
  0.33237E-02
  0.32128E-02
  0.74024E-02
  0.79908E-02
  0.11001E-01
  0.11854E-01
  0.14103E-01
  0.15273E-01
  0.12835E-01
  0.16235E-01
  0.17755E-01
  0.18409E-01
  0.19236E-01
  0.19481E-01
  0.16554E-01
  0.38228E-02
  0.83282E-02
  0.70631E-02
  0.86832E-02
  0.20040E-01
  0.19790E-01
  0.24431E-01
  0.10407E-01
  0.20633E-01
  0.20416E-01
  0.12308E-01
  0.18619E-01
  0.17731E-01
  0.18596E-01
  0.15353E-01
  0.16433E-01
  0.11783E-01
 -0.13844E-01
 -0.15027E-01
  0.13169E-01
  0.73727E-02
  0.21897E-02
  0.35734E-02
 -0.21477E-02
  0.31531E-01
  0.74250E-02
  0.52277E-02
 -0.12024E-01
 -0.14097E-02
  0.95960E-02
  0.11895E-01
  0.12996E-01
  0.14025E-01
  0.14339E-01
  0.14237E-01
  0.13983E-01
  0.13854E-01
  0.13195E-01
  0.12793E-01
  0.12930E-01
  0.11979E-01
  0.11402E-01
  0.11044E-01
  0.93026E-02
  0.78292E-02
  0.52497E-02
  0.73241E-02
  0.24612E-02
 -0.92148E-03
  0.55471E-02
  0.36131E-03
  0.52525E-02
 -0.69996E-03
  0.30855E-02
 -0.28502E-03
  0.13957E-01
 -0.50845E-02
  0.81786E-03
  0.22309E-01
  0.21674E-01
 -0.15757E-01
  0.44537E-02
  0.13352E-01
  0.92030E-02
  0.21756E-01
  0.78823E-02
  0.43697E-02
 -0.12986E-01
 -0.16636E-01
  0.11810E-02
  0.20550E-02
  0.10616E-01
  0.58167E-02
  0.32133E-01
  0.32415E-01
  0.10924E-01
  0.10587E-01
  0.33181E-02
  0.58720E-02
 -0.44109E-03
 -0.77220E-02
 -0.22607E-01
 -0.23632E-01
 -0.87930E-02
  0.30781E-01
  0.29963E-01
 -0.20372E-02
 -0.15393E-01
 -0.28148E-03
 -0.66306E-02
 -0.49420E-02
  0.21472E-02
 -0.25177E-01
 -0.25723E-01
  0.37238E-02
  0.61021E-02
  0.62632E-02
  0.83566E-04
  0.65351E-02
  0.19572E-01
  0.19126E-01
  0.12010E-01
  0.16573E-02
  0.18601E-01
  0.11323E-01
 -0.50979E-02
  0.39443E-02
 -0.66047E-03
  0.62612E-02
 -0.15651E-01
 -0.10564E-01
  0.39478E-02
  0.18651E-01
 -0.84706E-02
 -0.13820E-01
  0.13602E-01
  0.22347E-01
  0.71249E-02
 -0.26078E-01
  0.62063E-02
  0.21834E-01
  0.40940E-02
  0.29932E-01
  0.29145E-01
  0.29163E-01
  0.28350E-01
  0.28333E-01
  0.28387E-01
  0.27588E-01
  0.22136E-02
  0.31390E-01
  0.21209E-02
  0.60474E-02
  0.12921E-01
  0.10172E-01
  0.85970E-02
  0.41238E-02
  0.11011E-01
 -0.14335E-01
  0.32754E-01
  0.32853E-01
  0.19928E-01
  0.18078E-01
  0.17612E-01
  0.22944E-01
 -0.31993E-01
 -0.30208E-01
  0.88694E-02
 -0.14370E-01
 -0.20783E-01
  0.20673E-02
  0.39126E-02
  0.49422E-03
  0.22342E-02
 -0.19475E-03
  0.53238E-03
  0.23125E-02
  0.15681E-02
  0.18799E-01
  0.17103E-01
  0.15965E-01
  0.15203E-01
  0.14107E-01
  0.13157E-01
  0.38692E-02
 -0.25572E-01
  0.10423E-01
  0.30024E-01
  0.30913E-01
  0.10989E-01
 -0.16016E-01
  0.58160E-02
  0.12780E-01
  0.72190E-02
  0.10223E-01
  0.49565E-02
  0.52812E-02
  0.69146E-02
 -0.50868E-02
  0.10476E-01
  0.53422E-04
 -0.28723E-01
 -0.95830E-02
  0.63665E-02
  0.27609E-01
  0.26838E-01
  0.26912E-01
  0.26227E-01
 -0.79129E-02
  0.56415E-02
 -0.39378E-01
 -0.36914E-01
 -0.27342E-01
 -0.32704E-01
  0.22915E-01
  0.23528E-01
  0.81355E-02
 -0.20230E-01
 -0.23679E-01
  0.96138E-02
  0.56833E-02
  0.67718E-02
  0.22227E-02
  0.18648E-02
  0.27462E-02
  0.27052E-02
 -0.40955E-01
  0.32014E-01
  0.30623E-01
  0.30214E-01
  0.68652E-02
  0.60995E-02
  0.22639E-01
  0.10061E-01
  0.74399E-02
  0.79695E-02
  0.31328E-03
 -0.20110E-02
  0.26787E-02
  0.24930E-02
  0.12105E-01
  0.13312E-01
 -0.24305E-01
 -0.34052E-01
 -0.34805E-01
 -0.26603E-01
 -0.16734E-01
 -0.10126E-01
  0.11101E-01
  0.92097E-02
  0.10704E-01
 -0.82262E-03
  0.77417E-02
  0.18468E-02
  0.30099E-01
  0.31052E-01
  0.48847E-02
  0.37488E-02
  0.39034E-02
  0.43147E-02
  0.84843E-02
  0.33305E-01
  0.33195E-01
  0.32916E-01
  0.14195E-01
  0.14071E-01
  0.15092E-01
  0.29267E-01
 -0.14436E-01
 -0.13338E-01
 -0.18404E-01
  0.29044E-01
  0.29251E-01
  0.28674E-01
  0.27444E-01
  0.14510E-02
 -0.24025E-02
 -0.20336E-02
  0.10744E-01
  0.92325E-02
  0.42152E-02
  0.94566E-02
  0.44902E-02
 -0.32434E-01
 -0.40044E-01
 -0.38362E-01
  0.26074E-01
  0.25523E-01
  0.25781E-01
  0.25131E-01
  0.14907E-01
  0.21122E-01
  0.21401E-01
  0.31202E-02
  0.26774E-01
  0.25407E-01
  0.28225E-01
 -0.83806E-02
 -0.79575E-02
  0.36827E-02
  0.38776E-02
  0.27127E-02
  0.41054E-02
  0.16615E-01
  0.19003E-01
  0.21294E-01
  0.18756E-01
  0.21020E-01
 -0.35638E-02
  0.31162E-01
  0.18618E-01
  0.16264E-01
 -0.41733E-01
 -0.43971E-01
  0.27053E-02
  0.40447E-02
  0.30151E-01
  0.77500E-02
  0.11925E-01
 -0.22649E-01
 -0.26095E-01
 -0.39067E-01
 -0.28299E-01
 -0.18412E-01
 -0.18451E-01
 -0.13431E-01
 -0.70354E-02
  0.12948E-01
  0.10976E-01
  0.10582E-01
  0.85674E-02
  0.78302E-02
  0.62873E-02
  0.70469E-02
  0.28991E-02
  0.44791E-02
  0.53726E-02
  0.56662E-02
  0.24824E-01
  0.24476E-01
  0.30006E-02
  0.25288E-02
  0.31487E-02
 -0.59496E-02
  0.21038E-01
  0.14929E-02
 -0.36355E-02
  0.20679E-01
  0.10369E-01
  0.88476E-02
  0.12476E-01
  0.23073E-02
 -0.18884E-01
 -0.43839E-02
  0.15643E-03
 -0.40136E-01
 -0.27918E-01
 -0.16482E-01
 -0.93810E-02
 -0.63458E-02
 -0.14321E-01
 -0.18239E-02
 -0.58910E-02
  0.37247E-02
  0.15329E-02
  0.97360E-02
  0.90688E-02
  0.15954E-01
  0.15280E-01
  0.20238E-01
  0.21788E-01
  0.24494E-01
  0.26528E-01
  0.27887E-01
  0.30107E-01
  0.29292E-01
  0.32781E-01
  0.32342E-01
  0.34580E-01
  0.33556E-01
  0.35156E-01
  0.36604E-01
  0.36546E-01
  0.38367E-01
  0.37460E-01
  0.39414E-01
  0.37795E-01
  0.36124E-01
  0.35932E-01
  0.37515E-01
  0.35121E-01
  0.35894E-01
  0.33800E-01
  0.34035E-01
  0.36091E-01
  0.33630E-01
  0.31738E-01
  0.30705E-01
  0.35658E-01
  0.34600E-01
  0.29224E-01
  0.27602E-01
  0.28704E-01
  0.24992E-01
  0.24381E-01
  0.21437E-01
  0.38405E-01
  0.31934E-01
  0.33915E-01
  0.19096E-01
  0.16898E-01
  0.19050E-01
  0.15302E-01
  0.12120E-01
  0.11726E-01
  0.80267E-02
  0.88759E-02
  0.55316E-02
  0.71866E-02
  0.48820E-02
  0.66131E-02
  0.19087E-01
  0.32597E-01
  0.30210E-01
  0.22198E-01
  0.33173E-01
  0.31708E-01
  0.38145E-01
  0.34715E-01
  0.27828E-01
  0.69784E-02
  0.22003E-01
  0.21618E-01
 -0.86708E-02
  0.14553E-02
 -0.40105E-01
  0.21458E-02
 -0.96376E-03
  0.75539E-02
 -0.46694E-01
  0.38331E-02
  0.37486E-02
  0.53692E-02
  0.68007E-02
  0.72235E-02
  0.33363E-02
  0.76646E-03
 -0.54860E-03
  0.94519E-02
  0.20105E-02
  0.43016E-02
  0.37297E-01
  0.91524E-02
  0.13898E-01
  0.53754E-02
  0.32006E-02
  0.13858E-01
  0.36160E-02
  0.16711E-02
 -0.91997E-03
 -0.37955E-01
  0.62691E-02
  0.33718E-01
  0.40064E-01
 -0.60670E-03
 -0.52724E-01
 -0.23378E-02
  0.23617E-01
  0.23255E-01
  0.20798E-02
  0.31092E-01
  0.55443E-02
  0.63472E-02
  0.82116E-02
 -0.20572E-01
 -0.19686E-01
 -0.21338E-01
  0.25981E-01
  0.29983E-01
 -0.50388E-01
  0.97476E-02
  0.32253E-01
 -0.72810E-02
 -0.15022E-01
 -0.25907E-03
  0.62580E-02
  0.21427E-02
  0.11590E-01
  0.26590E-01
  0.23435E-01
  0.22933E-01
  0.55351E-02
  0.62167E-02
  0.51935E-02
  0.56620E-02
  0.33518E-01
  0.15750E-01
  0.15478E-01
 -0.42237E-02
  0.26323E-01
  0.28567E-01
 -0.46295E-02
  0.74428E-02
  0.54355E-02
  0.11180E-02
  0.39697E-02
  0.61742E-02
  0.63358E-02
 -0.15447E-01
 -0.14968E-01
 -0.47191E-01
 -0.42081E-01
  0.10604E-01
  0.11301E-01
  0.12686E-01
  0.31478E-01
  0.29931E-01
  0.32006E-01
  0.14252E-01
  0.11781E-01
  0.17652E-02
 -0.11969E-01
 -0.22612E-01
  0.11040E-01
  0.38167E-01
  0.33561E-01
  0.32826E-01
  0.61161E-02
 -0.50034E-01
  0.32071E-01
  0.90558E-02
  0.14820E-01
  0.14245E-01
  0.22138E-02
  0.12331E-01
  0.25399E-02
  0.27284E-02
  0.42533E-02
  0.20812E-01
  0.34668E-02
  0.61789E-02
  0.15812E-02
 -0.28574E-03
  0.10571E-01
 -0.50834E-01
 -0.15112E-01
 -0.18021E-01
 -0.13923E-01
 -0.19531E-01
  0.35621E-02
 -0.14464E-02
  0.27646E-01
 -0.13496E-01
  0.76818E-02
  0.72730E-02
  0.76197E-02
  0.35784E-01
  0.31752E-02
  0.14802E-01
  0.24584E-01
 -0.10061E-01
 -0.15012E-01
  0.13465E-01
  0.70380E-02
 -0.38888E-01
  0.31055E-01
  0.31633E-01
  0.40520E-01
  0.41359E-01
  0.39642E-01
  0.41063E-01
  0.39288E-01
  0.21250E-02
  0.23472E-01
  0.57901E-02
  0.43543E-01
  0.15944E-02
  0.19251E-02
  0.20377E-01
  0.22640E-01
 -0.62791E-02
 -0.84749E-02
 -0.11432E-02
 -0.33735E-02
 -0.11609E-01
  0.43163E-02
  0.17209E-01
 -0.96054E-03
 -0.43428E-02
 -0.64009E-02
 -0.37395E-02
  0.18781E-01
  0.74780E-02
  0.66052E-02
  0.62014E-02
  0.27624E-01
  0.42689E-01
  0.63011E-02
  0.10742E-01
  0.10431E-01
  0.27519E-02
  0.53622E-02
  0.67313E-02
  0.12811E-01
 -0.30432E-02
 -0.23509E-01
  0.51221E-03
  0.52467E-02
 -0.52028E-03
 -0.45361E-01
 -0.29343E-01
 -0.38225E-01
  0.31774E-01
  0.30145E-01
  0.32704E-01
  0.57775E-02
 -0.30639E-01
 -0.27019E-01
 -0.97547E-03
 -0.21978E-01
  0.24008E-01
  0.24551E-01
  0.14209E-01
  0.32501E-01
 -0.17553E-01
 -0.19193E-01
 -0.16173E-01
  0.20232E-01
  0.20136E-01
  0.21520E-01
  0.18525E-01
  0.20106E-01
  0.21438E-01
  0.23128E-01
  0.23942E-01
  0.30083E-01
  0.30650E-01
  0.30861E-01
  0.31170E-01
  0.97978E-02
  0.28497E-01
  0.27698E-01
  0.29495E-01
  0.30114E-01
  0.26813E-01
  0.28778E-01
  0.27927E-01
 -0.90886E-02
  0.19350E-01
  0.19550E-01
  0.18953E-01
  0.19638E-01
  0.19745E-01
  0.18602E-01
  0.20041E-01
  0.19690E-01
  0.19325E-01
  0.17731E-01
  0.16717E-01
  0.53481E-02
  0.25790E-01
  0.26064E-01
  0.26801E-01
  0.27019E-01
  0.27565E-01
  0.27565E-01
  0.27790E-01
 -0.88354E-02
 -0.10738E-01
  0.16066E-02
  0.25276E-01
  0.27846E-01
  0.28361E-01
 -0.17806E-01
 -0.18143E-01
  0.12056E-02
 -0.18949E-02
  0.21914E-01
  0.26834E-01
  0.26924E-01
  0.21705E-01
  0.65158E-02
  0.13559E-01
  0.13851E-01
  0.11877E-01
  0.11484E-01
  0.96589E-02
  0.84253E-02
  0.69526E-02
  0.87937E-02
  0.11083E-01
  0.12091E-01
  0.31006E-01
  0.12411E-01
  0.10793E-01
  0.11971E-01
  0.98296E-02
  0.11178E-01
  0.13290E-01
  0.12603E-01
  0.98948E-02
 -0.11171E-01
  0.26878E-01
  0.29105E-01
  0.30221E-01
  0.51350E-02
  0.16828E-01
  0.15669E-01
  0.17090E-01
  0.15742E-01
  0.17318E-01
  0.15672E-01
  0.13724E-01
  0.18270E-01
  0.17499E-01
  0.17301E-01
  0.16841E-01
  0.18238E-01
  0.16613E-01
  0.18008E-01
  0.18655E-01
  0.19402E-01
 -0.97330E-03
  0.24464E-01
 -0.39618E-01
 -0.16482E-02
  0.11727E-01
 -0.12723E-01
  0.46758E-02
  0.14407E-01
  0.12637E-01
  0.11530E-01
  0.14293E-01
  0.12442E-01
  0.28496E-01
 -0.29341E-01
 -0.23230E-03
  0.33696E-01
  0.10198E-02
  0.78558E-02
  0.19412E-01
  0.19297E-01
  0.13660E-01
  0.12362E-01
  0.69723E-02
  0.30217E-02
  0.11087E-01
  0.28607E-02
  0.18044E-01
  0.10066E-01
 -0.11960E-01
 -0.75082E-02
 -0.28394E-02
 -0.21926E-02
 -0.33362E-01
  0.95386E-02
  0.90178E-02
  0.88706E-02
  0.18173E-01
  0.70523E-02
  0.65692E-02
  0.80796E-02
  0.73928E-02
  0.47713E-02
  0.60016E-02
  0.86644E-02
  0.71789E-02
  0.41770E-02
  0.20580E-01
  0.21090E-01
  0.83761E-02
  0.50912E-02
 -0.24552E-01
  0.72013E-02
  0.10689E-01
  0.34177E-01
  0.34008E-01
  0.33594E-01
  0.33276E-01
  0.32592E-01
  0.12679E-01
  0.22855E-02
  0.18286E-01
  0.10695E-01
  0.65627E-02
  0.43304E-02
  0.22341E-01
  0.16029E-01
  0.27214E-02
 -0.76994E-03
 -0.92180E-02
 -0.14224E-01
 -0.21777E-03
  0.42525E-02
  0.53799E-02
  0.47541E-02
  0.72525E-02
  0.67262E-02
  0.91847E-02
  0.88083E-02
  0.58961E-02
  0.82927E-02
  0.11023E-01
  0.13235E-01
  0.13115E-01
  0.14805E-01
  0.15164E-01
  0.41755E-02
  0.35931E-02
  0.36887E-02
  0.22686E-02
  0.32390E-02
 -0.17379E-01
  0.38241E-02
  0.80462E-02
 -0.16460E-01
 -0.10401E-01
  0.12995E-01
 -0.35693E-02
  0.10382E-01
  0.83225E-02
 -0.58111E-02
  0.32906E-01
 -0.20885E-02
 -0.21451E-01
 -0.46423E-02
  0.37002E-02
  0.18181E-01
  0.34976E-01
  0.15402E-01
  0.62837E-02
 -0.12977E-01
  0.12540E-01
  0.75742E-02
 -0.23400E-01
  0.10976E-02
  0.29825E-02
  0.13542E-01
  0.44858E-02
  0.73586E-02
  0.98780E-02
 -0.12117E-01
 -0.42226E-01
 -0.45671E-01
  0.51959E-02
  0.43675E-02
  0.33087E-01
  0.19873E-01
  0.33301E-02
 -0.61502E-02
  0.25316E-01
  0.33716E-01
  0.23002E-01
 -0.37947E-01
  0.14374E-01
  0.16723E-01
  0.13112E-01
 -0.11437E-01
  0.57026E-02
  0.13719E-01
  0.35508E-02
 -0.36332E-01
  0.66562E-02
  0.12327E-01
  0.55040E-02
  0.40746E-01
  0.14696E-01
 -0.29541E-01
  0.23025E-01
  0.31394E-04
  0.12187E-01
  0.16802E-01
  0.13808E-01
  0.48260E-02
  0.67069E-02
 -0.92926E-02
  0.40734E-02
  0.50974E-02
  0.31642E-01
  0.30582E-02
  0.21684E-02
  0.33663E-01
 -0.24060E-01
 -0.19530E-01
  0.11368E-02
  0.22421E-01
 -0.58463E-01
 -0.56411E-01
  0.52092E-02
  0.23727E-01
 -0.96898E-02
 -0.20489E-01
 -0.47509E-01
  0.42745E-02
  0.12088E-01
  0.29139E-01
  0.15939E-01
  0.78846E-02
 -0.81980E-02
  0.15167E-01
  0.16227E-01
  0.49020E-02
  0.92454E-02
  0.31939E-01
  0.27461E-02
  0.21292E-01
  0.31273E-01
  0.44243E-02
  0.70169E-02
  0.16786E-01
 -0.46187E-01
 -0.14040E-01
  0.47195E-02
 -0.18799E-01
  0.32189E-01
  0.35527E-02
  0.13537E-01
  0.97371E-02
  0.20890E-01
  0.58170E-02
  0.28193E-01
  0.21965E-01
  0.65890E-02
  0.21603E-01
  0.11691E-01
  0.14530E-01
 -0.18636E-02
  0.60900E-02
  0.25994E-01
  0.10556E-01
 -0.43567E-01
  0.10013E-01
  0.28362E-01
  0.70634E-02
 -0.31017E-01
  0.33613E-01
  0.10123E-01
  0.30903E-02
  0.41854E-02
  0.30481E-01
 -0.25868E-02
  0.21711E-01
  0.29522E-01
  0.31459E-02
  0.20346E-01
  0.25445E-01
  0.21438E-01
  0.35814E-01
  0.31999E-01
  0.26428E-01
 -0.11593E-01
  0.25384E-01
  0.24150E-02
 -0.55259E-03
 -0.20001E-01