# vtk DataFile Version 2.0
Unstructured Grid UFVM-ECOMOD
ASCII
DATASET UNSTRUCTURED_GRID
 POINTS         1724  float
  0.00000E+00  0.00000E+00  0.00000E+00
  0.40000E+01  0.00000E+00  0.00000E+00
  0.40000E+01  0.20000E+01  0.00000E+00
  0.00000E+00  0.20000E+01  0.00000E+00
  0.15750E+01  0.10287E+01  0.00000E+00
  0.15677E+01  0.97091E+00  0.00000E+00
  0.15461E+01  0.91674E+00  0.00000E+00
  0.15118E+01  0.86961E+00  0.00000E+00
  0.14667E+01  0.83248E+00  0.00000E+00
  0.14138E+01  0.80767E+00  0.00000E+00
  0.13563E+01  0.79675E+00  0.00000E+00
  0.12979E+01  0.80041E+00  0.00000E+00
  0.12423E+01  0.81842E+00  0.00000E+00
  0.11929E+01  0.84963E+00  0.00000E+00
  0.11529E+01  0.89210E+00  0.00000E+00
  0.11247E+01  0.94315E+00  0.00000E+00
  0.11102E+01  0.99958E+00  0.00000E+00
  0.11102E+01  0.10578E+01  0.00000E+00
  0.11247E+01  0.11143E+01  0.00000E+00
  0.11529E+01  0.11653E+01  0.00000E+00
  0.11929E+01  0.12078E+01  0.00000E+00
  0.12423E+01  0.12390E+01  0.00000E+00
  0.12979E+01  0.12570E+01  0.00000E+00
  0.13563E+01  0.12607E+01  0.00000E+00
  0.14138E+01  0.12497E+01  0.00000E+00
  0.14667E+01  0.12249E+01  0.00000E+00
  0.15118E+01  0.11878E+01  0.00000E+00
  0.15461E+01  0.11407E+01  0.00000E+00
  0.15677E+01  0.10865E+01  0.00000E+00
  0.10000E+00  0.00000E+00  0.00000E+00
  0.20000E+00  0.00000E+00  0.00000E+00
  0.30000E+00  0.00000E+00  0.00000E+00
  0.40000E+00  0.00000E+00  0.00000E+00
  0.50000E+00  0.00000E+00  0.00000E+00
  0.60000E+00  0.00000E+00  0.00000E+00
  0.70000E+00  0.00000E+00  0.00000E+00
  0.80000E+00  0.00000E+00  0.00000E+00
  0.90000E+00  0.00000E+00  0.00000E+00
  0.10000E+01  0.00000E+00  0.00000E+00
  0.11000E+01  0.00000E+00  0.00000E+00
  0.12000E+01  0.00000E+00  0.00000E+00
  0.13000E+01  0.00000E+00  0.00000E+00
  0.14000E+01  0.00000E+00  0.00000E+00
  0.15000E+01  0.00000E+00  0.00000E+00
  0.16000E+01  0.00000E+00  0.00000E+00
  0.17000E+01  0.00000E+00  0.00000E+00
  0.18000E+01  0.00000E+00  0.00000E+00
  0.19000E+01  0.00000E+00  0.00000E+00
  0.20000E+01  0.00000E+00  0.00000E+00
  0.21000E+01  0.00000E+00  0.00000E+00
  0.22000E+01  0.00000E+00  0.00000E+00
  0.23000E+01  0.00000E+00  0.00000E+00
  0.24000E+01  0.00000E+00  0.00000E+00
  0.25000E+01  0.00000E+00  0.00000E+00
  0.26000E+01  0.00000E+00  0.00000E+00
  0.27000E+01  0.00000E+00  0.00000E+00
  0.28000E+01  0.00000E+00  0.00000E+00
  0.29000E+01  0.00000E+00  0.00000E+00
  0.30000E+01  0.00000E+00  0.00000E+00
  0.31000E+01  0.00000E+00  0.00000E+00
  0.32000E+01  0.00000E+00  0.00000E+00
  0.33000E+01  0.00000E+00  0.00000E+00
  0.34000E+01  0.00000E+00  0.00000E+00
  0.35000E+01  0.00000E+00  0.00000E+00
  0.36000E+01  0.00000E+00  0.00000E+00
  0.37000E+01  0.00000E+00  0.00000E+00
  0.38000E+01  0.00000E+00  0.00000E+00
  0.39000E+01  0.00000E+00  0.00000E+00
  0.40000E+01  0.10000E+00  0.00000E+00
  0.40000E+01  0.20000E+00  0.00000E+00
  0.40000E+01  0.30000E+00  0.00000E+00
  0.40000E+01  0.40000E+00  0.00000E+00
  0.40000E+01  0.50000E+00  0.00000E+00
  0.40000E+01  0.60000E+00  0.00000E+00
  0.40000E+01  0.70000E+00  0.00000E+00
  0.40000E+01  0.80000E+00  0.00000E+00
  0.40000E+01  0.90000E+00  0.00000E+00
  0.40000E+01  0.10000E+01  0.00000E+00
  0.40000E+01  0.11000E+01  0.00000E+00
  0.40000E+01  0.12000E+01  0.00000E+00
  0.40000E+01  0.13000E+01  0.00000E+00
  0.40000E+01  0.14000E+01  0.00000E+00
  0.40000E+01  0.15000E+01  0.00000E+00
  0.40000E+01  0.16000E+01  0.00000E+00
  0.40000E+01  0.17000E+01  0.00000E+00
  0.40000E+01  0.18000E+01  0.00000E+00
  0.40000E+01  0.19000E+01  0.00000E+00
  0.39000E+01  0.20000E+01  0.00000E+00
  0.38000E+01  0.20000E+01  0.00000E+00
  0.37000E+01  0.20000E+01  0.00000E+00
  0.36000E+01  0.20000E+01  0.00000E+00
  0.35000E+01  0.20000E+01  0.00000E+00
  0.34000E+01  0.20000E+01  0.00000E+00
  0.33000E+01  0.20000E+01  0.00000E+00
  0.32000E+01  0.20000E+01  0.00000E+00
  0.31000E+01  0.20000E+01  0.00000E+00
  0.30000E+01  0.20000E+01  0.00000E+00
  0.29000E+01  0.20000E+01  0.00000E+00
  0.28000E+01  0.20000E+01  0.00000E+00
  0.27000E+01  0.20000E+01  0.00000E+00
  0.26000E+01  0.20000E+01  0.00000E+00
  0.25000E+01  0.20000E+01  0.00000E+00
  0.24000E+01  0.20000E+01  0.00000E+00
  0.23000E+01  0.20000E+01  0.00000E+00
  0.22000E+01  0.20000E+01  0.00000E+00
  0.21000E+01  0.20000E+01  0.00000E+00
  0.20000E+01  0.20000E+01  0.00000E+00
  0.19000E+01  0.20000E+01  0.00000E+00
  0.18000E+01  0.20000E+01  0.00000E+00
  0.17000E+01  0.20000E+01  0.00000E+00
  0.16000E+01  0.20000E+01  0.00000E+00
  0.15000E+01  0.20000E+01  0.00000E+00
  0.14000E+01  0.20000E+01  0.00000E+00
  0.13000E+01  0.20000E+01  0.00000E+00
  0.12000E+01  0.20000E+01  0.00000E+00
  0.11000E+01  0.20000E+01  0.00000E+00
  0.10000E+01  0.20000E+01  0.00000E+00
  0.90000E+00  0.20000E+01  0.00000E+00
  0.80000E+00  0.20000E+01  0.00000E+00
  0.70000E+00  0.20000E+01  0.00000E+00
  0.60000E+00  0.20000E+01  0.00000E+00
  0.50000E+00  0.20000E+01  0.00000E+00
  0.40000E+00  0.20000E+01  0.00000E+00
  0.30000E+00  0.20000E+01  0.00000E+00
  0.20000E+00  0.20000E+01  0.00000E+00
  0.10000E+00  0.20000E+01  0.00000E+00
  0.00000E+00  0.19000E+01  0.00000E+00
  0.00000E+00  0.18000E+01  0.00000E+00
  0.00000E+00  0.17000E+01  0.00000E+00
  0.00000E+00  0.16000E+01  0.00000E+00
  0.00000E+00  0.15000E+01  0.00000E+00
  0.00000E+00  0.14000E+01  0.00000E+00
  0.00000E+00  0.13000E+01  0.00000E+00
  0.00000E+00  0.12000E+01  0.00000E+00
  0.00000E+00  0.11000E+01  0.00000E+00
  0.00000E+00  0.10000E+01  0.00000E+00
  0.00000E+00  0.90000E+00  0.00000E+00
  0.00000E+00  0.80000E+00  0.00000E+00
  0.00000E+00  0.70000E+00  0.00000E+00
  0.00000E+00  0.60000E+00  0.00000E+00
  0.00000E+00  0.50000E+00  0.00000E+00
  0.00000E+00  0.40000E+00  0.00000E+00
  0.00000E+00  0.30000E+00  0.00000E+00
  0.00000E+00  0.20000E+00  0.00000E+00
  0.00000E+00  0.10000E+00  0.00000E+00
  0.15713E+01  0.99981E+00  0.00000E+00
  0.15569E+01  0.94382E+00  0.00000E+00
  0.15290E+01  0.89318E+00  0.00000E+00
  0.14892E+01  0.85104E+00  0.00000E+00
  0.14402E+01  0.82007E+00  0.00000E+00
  0.13850E+01  0.80221E+00  0.00000E+00
  0.13271E+01  0.79858E+00  0.00000E+00
  0.12701E+01  0.80941E+00  0.00000E+00
  0.12176E+01  0.83402E+00  0.00000E+00
  0.11729E+01  0.87086E+00  0.00000E+00
  0.11388E+01  0.91762E+00  0.00000E+00
  0.11175E+01  0.97136E+00  0.00000E+00
  0.11102E+01  0.10287E+01  0.00000E+00
  0.11175E+01  0.10860E+01  0.00000E+00
  0.11388E+01  0.11398E+01  0.00000E+00
  0.11729E+01  0.11865E+01  0.00000E+00
  0.12176E+01  0.12234E+01  0.00000E+00
  0.12701E+01  0.12480E+01  0.00000E+00
  0.13271E+01  0.12588E+01  0.00000E+00
  0.13850E+01  0.12552E+01  0.00000E+00
  0.14402E+01  0.12373E+01  0.00000E+00
  0.14892E+01  0.12064E+01  0.00000E+00
  0.15290E+01  0.11642E+01  0.00000E+00
  0.15569E+01  0.11136E+01  0.00000E+00
  0.15713E+01  0.10576E+01  0.00000E+00
  0.15994E+01  0.10133E+01  0.00000E+00
  0.15863E+01  0.11089E+01  0.00000E+00
  0.25478E+01  0.10053E+00  0.00000E+00
  0.25434E+01  0.19142E+01  0.00000E+00
  0.11238E+01  0.89266E+00  0.00000E+00
  0.11061E+01  0.11423E+01  0.00000E+00
  0.15575E+01  0.89126E+00  0.00000E+00
  0.10894E+01  0.97917E+00  0.00000E+00
  0.15393E+01  0.11910E+01  0.00000E+00
  0.11627E+01  0.12175E+01  0.00000E+00
  0.14962E+01  0.82262E+00  0.00000E+00
  0.29512E+01  0.95010E-01  0.00000E+00
  0.29494E+01  0.19117E+01  0.00000E+00
  0.39186E+01  0.10466E+01  0.00000E+00
  0.11913E+01  0.82197E+00  0.00000E+00
  0.12788E+01  0.78594E+00  0.00000E+00
  0.21500E+01  0.86600E-01  0.00000E+00
  0.21472E+01  0.19005E+01  0.00000E+00
  0.14041E+01  0.78007E+00  0.00000E+00
  0.14641E+01  0.12550E+01  0.00000E+00
  0.13764E+01  0.12826E+01  0.00000E+00
  0.99450E-01  0.63780E+00  0.00000E+00
  0.92450E-01  0.13422E+01  0.00000E+00
  0.12473E+01  0.12677E+01  0.00000E+00
  0.65677E+00  0.19154E+01  0.00000E+00
  0.86110E-01  0.10467E+01  0.00000E+00
  0.75000E+00  0.86600E-01  0.00000E+00
  0.33379E+01  0.88030E-01  0.00000E+00
  0.33490E+01  0.19201E+01  0.00000E+00
  0.18500E+01  0.86600E-01  0.00000E+00
  0.18441E+01  0.19006E+01  0.00000E+00
  0.38922E+01  0.64055E+00  0.00000E+00
  0.39154E+01  0.13500E+01  0.00000E+00
  0.10564E+01  0.85180E-01  0.00000E+00
  0.94817E+00  0.19249E+01  0.00000E+00
  0.15421E+01  0.85450E-01  0.00000E+00
  0.15479E+01  0.19161E+01  0.00000E+00
  0.12386E+01  0.19130E+01  0.00000E+00
  0.45294E+00  0.85030E-01  0.00000E+00
  0.86890E-01  0.16531E+01  0.00000E+00
  0.36495E+01  0.78620E-01  0.00000E+00
  0.36510E+01  0.19107E+01  0.00000E+00
  0.10846E+01  0.10423E+01  0.00000E+00
  0.15860E+01  0.94842E+00  0.00000E+00
  0.13392E+01  0.77093E+00  0.00000E+00
  0.13108E+01  0.12864E+01  0.00000E+00
  0.87300E-01  0.35008E+00  0.00000E+00
  0.34468E+00  0.19176E+01  0.00000E+00
  0.39135E+01  0.16499E+01  0.00000E+00
  0.39252E+01  0.34254E+00  0.00000E+00
  0.13680E+01  0.88360E-01  0.00000E+00
  0.88350E-01  0.84594E+00  0.00000E+00
  0.23513E+01  0.77830E-01  0.00000E+00
  0.23488E+01  0.19154E+01  0.00000E+00
  0.27481E+01  0.80910E-01  0.00000E+00
  0.31480E+01  0.84140E-01  0.00000E+00
  0.31513E+01  0.19149E+01  0.00000E+00
  0.27502E+01  0.19198E+01  0.00000E+00
  0.39134E+01  0.85000E+00  0.00000E+00
  0.25071E+00  0.86200E-01  0.00000E+00
  0.91130E-01  0.18412E+01  0.00000E+00
  0.38461E+01  0.84360E-01  0.00000E+00
  0.38408E+01  0.19092E+01  0.00000E+00
  0.97440E-01  0.15849E+00  0.00000E+00
  0.15988E+01  0.10458E+01  0.00000E+00
  0.16261E+01  0.10305E+01  0.00000E+00
  0.16281E+01  0.99836E+00  0.00000E+00
  0.16554E+01  0.10148E+01  0.00000E+00
  0.16578E+01  0.98164E+00  0.00000E+00
  0.16863E+01  0.99914E+00  0.00000E+00
  0.16884E+01  0.96239E+00  0.00000E+00
  0.17222E+01  0.98417E+00  0.00000E+00
  0.17231E+01  0.93952E+00  0.00000E+00
  0.17605E+01  0.96435E+00  0.00000E+00
  0.17576E+01  0.10098E+01  0.00000E+00
  0.17991E+01  0.98970E+00  0.00000E+00
  0.17625E+01  0.91931E+00  0.00000E+00
[...]
 POINT_DATA         1724
  
 SCALARS WL      float 1
 LOOKUP_TABLE default
  0.21136E-01
  0.71648E-02
 -0.21630E-03
  0.34342E-01
 -0.43643E-01
 -0.34063E-01
 -0.19155E-01
 -0.10288E-01
 -0.98612E-02
 -0.68493E-02
 -0.57822E-02
 -0.87905E-02
 -0.50134E-03
  0.10139E-01
  0.26017E-01
  0.37235E-01
  0.43919E-01
  0.44002E-01
  0.37231E-01
  0.24818E-01
  0.54144E-02
 -0.17569E-01
 -0.42497E-01
 -0.66172E-01
 -0.59324E-01
 -0.41421E-01
 -0.40673E-01
 -0.41784E-01
 -0.43433E-01
  0.20936E-01
  0.20560E-01
  0.20018E-01
  0.19338E-01
  0.18501E-01
  0.17515E-01
  0.16441E-01
  0.15371E-01
  0.14272E-01
  0.13416E-01
  0.13135E-01
  0.13309E-01
  0.14100E-01
  0.15254E-01
  0.15811E-01
  0.16110E-01
  0.16188E-01
  0.16219E-01
  0.16413E-01
  0.16293E-01
  0.16169E-01
  0.15792E-01
  0.15420E-01
  0.14994E-01
  0.15163E-01
  0.15932E-01
  0.17553E-01
  0.19800E-01
  0.22294E-01
  0.25097E-01
  0.27325E-01
  0.28725E-01
  0.29422E-01
  0.29077E-01
  0.28135E-01
  0.25935E-01
  0.22837E-01
  0.18616E-01
  0.12174E-01
  0.00000E+00
  0.00000E+00
  0.00000E+00
  0.00000E+00
  0.00000E+00
  0.00000E+00
  0.00000E+00
  0.00000E+00
  0.00000E+00
  0.00000E+00
  0.00000E+00
  0.00000E+00
  0.00000E+00
  0.00000E+00
  0.00000E+00
  0.00000E+00
  0.00000E+00
  0.00000E+00
  0.00000E+00
 -0.74294E-03
 -0.14186E-02
 -0.81381E-03
  0.53320E-03
  0.22845E-02
  0.42460E-02
  0.55178E-02
  0.61367E-02
  0.60422E-02
  0.50416E-02
  0.38937E-02
  0.33562E-02
  0.34385E-02
  0.37471E-02
  0.43306E-02
  0.50397E-02
  0.56723E-02
  0.60843E-02
  0.61731E-02
  0.57335E-02
  0.50854E-02
  0.44828E-02
  0.40948E-02
  0.43349E-02
  0.54633E-02
  0.74086E-02
  0.99717E-02
  0.12839E-01
  0.15719E-01
  0.18463E-01
  0.21022E-01
  0.23261E-01
  0.25280E-01
  0.27089E-01
  0.28812E-01
  0.30451E-01
  0.31878E-01
  0.33082E-01
  0.33963E-01
  0.34310E-01
  0.34122E-01
  0.33793E-01
  0.33271E-01
  0.32618E-01
  0.31643E-01
  0.30621E-01
  0.29443E-01
  0.28296E-01
  0.27170E-01
  0.26111E-01
  0.25159E-01
  0.24234E-01
  0.23464E-01
  0.22793E-01
  0.22228E-01
  0.21777E-01
  0.21444E-01
  0.21230E-01
 -0.40958E-01
 -0.26474E-01
 -0.12567E-01
 -0.97673E-02
 -0.89013E-02
 -0.59784E-02
 -0.79505E-02
 -0.73967E-02
  0.33275E-02
  0.18641E-01
  0.32324E-01
  0.41814E-01
  0.44717E-01
  0.41910E-01
  0.32065E-01
  0.15489E-01
 -0.50193E-02
 -0.29307E-01
 -0.56173E-01
 -0.68139E-01
 -0.47339E-01
 -0.41926E-01
 -0.40461E-01
 -0.42668E-01
 -0.44158E-01
 -0.40157E-01
 -0.41728E-01
  0.15868E-01
  0.42198E-02
  0.30606E-01
  0.34686E-01
 -0.15070E-01
  0.42740E-01
 -0.39452E-01
  0.13809E-01
 -0.10669E-01
  0.23471E-01
  0.42537E-02
 -0.61731E-03
  0.88261E-02
 -0.66601E-02
  0.16062E-01
  0.62236E-02
 -0.59378E-02
 -0.42868E-01
 -0.63132E-01
  0.23751E-01
  0.31322E-01
 -0.18732E-01
  0.26198E-01
  0.27909E-01
  0.16029E-01
  0.28541E-01
  0.49513E-02
  0.16159E-01
  0.44627E-02
 -0.11103E-01
  0.45348E-02
  0.13424E-01
  0.19826E-01
  0.15534E-01
  0.44344E-02
  0.11532E-01
  0.18999E-01
  0.33468E-01
  0.23850E-01
  0.76534E-06
  0.44249E-01
 -0.28492E-01
 -0.57425E-02
 -0.43482E-01
  0.21872E-01
  0.31277E-01
  0.13233E-02
  0.24467E-02
  0.14645E-01
  0.25724E-01
  0.15301E-01
  0.55312E-02
  0.18782E-01
  0.27455E-01
  0.63663E-02
  0.33753E-02
 -0.82779E-02
  0.20378E-01
  0.33933E-01
  0.15120E-01
 -0.98474E-03
  0.21149E-01
 -0.42131E-01
 -0.38640E-01
 -0.37025E-01
 -0.37450E-01
 -0.35115E-01
 -0.36615E-01
 -0.33719E-01
 -0.35663E-01
 -0.31721E-01
 -0.33619E-01
 -0.36814E-01
 -0.33532E-01
 -0.28570E-01
 -0.35333E-01
 -0.30445E-01
 -0.29697E-01
 -0.24498E-01
 -0.21610E-01
 -0.17601E-01
 -0.20371E-01
 -0.14708E-01
 -0.17744E-01
 -0.13927E-01
 -0.17030E-01
 -0.15294E-01
 -0.18658E-01
 -0.18700E-01
 -0.11548E-01
 -0.22390E-01
 -0.23124E-01
 -0.16651E-01
 -0.20074E-01
 -0.18862E-01
 -0.12180E-01
 -0.13807E-01
 -0.19390E-01
 -0.11557E-01
 -0.13511E-01
 -0.64802E-02
 -0.47395E-02
 -0.19586E-02
 -0.98217E-03
  0.80733E-03
 -0.27909E-03
  0.61738E-04
  0.30349E-02
  0.11509E-03
 -0.29956E-02
 -0.52409E-02
  0.25235E-03
 -0.62796E-02
  0.10825E-02
 -0.54637E-02
 -0.13664E-01
 -0.11880E-01
 -0.34910E-02
 -0.19609E-01
 -0.15791E-01
 -0.21398E-01
 -0.26367E-01
 -0.16177E-01
 -0.18488E-01
 -0.22749E-01
 -0.22745E-01
 -0.14966E-01
 -0.19028E-01
 -0.83480E-02
 -0.12310E-01
 -0.22043E-02
 -0.12884E-01
 -0.10987E-01
 -0.12316E-01
 -0.37349E-02
  0.29134E-02
  0.68932E-02
  0.11482E-01
  0.12552E-01
  0.16712E-01
 -0.78390E-02
 -0.57817E-02
  0.15593E-01
  0.16898E-01
 -0.25441E-01
  0.15045E-01
  0.13923E-01
  0.13215E-01
  0.11507E-01
  0.11852E-01
  0.91069E-02
  0.85660E-02
  0.61406E-02
  0.76754E-02
  0.55077E-02
 -0.10015E-01
  0.20346E-03
 -0.15163E-02
  0.66724E-02
  0.71197E-02
  0.13668E-01
 -0.21240E-01
  0.75568E-02
  0.62303E-02
 -0.17340E-01
  0.31224E-02
 -0.30025E-02
 -0.75514E-03
 -0.28383E-02
  0.12151E-02
  0.84284E-02
  0.77350E-02
  0.54968E-02
  0.77234E-02
  0.11812E-01
  0.12740E-01
  0.81221E-02
  0.56335E-02
  0.83611E-02
  0.99250E-02
  0.10914E-01
  0.11928E-01
  0.13050E-01
  0.12239E-01
  0.14468E-01
  0.13993E-01
  0.16169E-01
  0.16152E-01
  0.18174E-01
  0.17621E-01
  0.19370E-01
  0.20291E-01
  0.21153E-01
  0.22480E-01
  0.22846E-01
  0.24491E-01
  0.24363E-01
  0.26177E-01
  0.25581E-01
  0.27491E-01
  0.26578E-01
  0.28433E-01
  0.27327E-01
  0.28986E-01
  0.25668E-01
  0.27831E-01
  0.29289E-01
  0.28133E-01
  0.29436E-01
  0.30621E-01
  0.30530E-01
  0.31683E-01
  0.31359E-01
  0.32420E-01
  0.31866E-01
  0.32739E-01
  0.32033E-01
  0.32642E-01
  0.31864E-01
  0.32157E-01
  0.31387E-01
  0.31282E-01
  0.30642E-01
  0.30108E-01
  0.31297E-01
  0.30974E-01
  0.29699E-01
  0.28763E-01
  0.22749E-01
  0.28426E-01
  0.27062E-01
  0.28646E-01
  0.29571E-01
  0.27425E-01
  0.27357E-01
  0.25806E-01
  0.25405E-01
  0.23789E-01
  0.22840E-01
  0.21306E-01
  0.19619E-01
  0.27393E-01
  0.26038E-01
  0.18441E-01
  0.33113E-01
  0.28686E-01
  0.29660E-01
  0.27437E-01
  0.29532E-01
  0.33206E-01
  0.18420E-01
  0.15854E-01
  0.24539E-01
  0.28923E-01
  0.29904E-01
  0.26392E-01
  0.25162E-01
  0.13823E-01
  0.15188E-01
  0.11946E-01
  0.21190E-01
  0.26269E-01
  0.27664E-01
  0.30399E-01
  0.30667E-01
  0.30898E-01
 -0.38244E-01
  0.24677E-01
  0.23950E-01
  0.23310E-01
  0.22759E-01
  0.22002E-01
  0.94282E-02
  0.29352E-01
  0.21649E-01
  0.39352E-03
 -0.11732E-01
 -0.15693E-01
  0.21315E-01
  0.12009E-01
  0.73617E-02
  0.81064E-02
  0.28864E-02
  0.45148E-02
 -0.84359E-03
  0.15677E-02
 -0.34632E-02
 -0.70235E-02
 -0.10303E-01
 -0.49354E-02
 -0.99409E-02
 -0.16349E-01
 -0.14504E-01
 -0.87279E-02
 -0.11790E-01
 -0.69183E-02
 -0.82971E-02
 -0.13225E-01
 -0.86414E-02
 -0.13230E-01
 -0.84880E-02
 -0.46085E-02
 -0.40901E-02
 -0.10372E-02
 -0.13948E-03
  0.18930E-02
  0.28971E-02
  0.41834E-02
  0.52767E-02
  0.39475E-02
  0.61434E-02
  0.68184E-02
  0.77722E-02
  0.78869E-02
  0.87271E-02
  0.69417E-02
 -0.30545E-02
  0.10776E-01
  0.15158E-01
  0.16381E-01
  0.83846E-02
  0.92794E-02
  0.25605E-01
  0.21138E-02
  0.20843E-01
  0.21147E-01
  0.29015E-02
  0.93946E-02
  0.99167E-02
  0.90756E-02
  0.87055E-02
  0.81943E-02
  0.73324E-02
 -0.18827E-01
 -0.18326E-01
  0.65100E-02
  0.52790E-02
 -0.49391E-02
 -0.10281E-02
 -0.32718E-02
  0.28162E-01
  0.63464E-02
  0.96360E-02
 -0.20043E-01
 -0.61251E-02
  0.77658E-02
  0.11735E-01
  0.12957E-01
  0.15694E-01
  0.16524E-01
  0.18343E-01
  0.18757E-01
  0.16699E-01
  0.18744E-01
  0.16405E-01
  0.19936E-01
  0.18493E-01
  0.15882E-01
  0.13115E-01
  0.12364E-01
  0.89978E-02
  0.80415E-02
  0.11589E-01
  0.68239E-02
  0.32741E-02
  0.10943E-01
  0.54675E-02
  0.55212E-02
  0.26087E-02
  0.28891E-02
 -0.77206E-02
  0.90060E-02
 -0.96357E-03
  0.51318E-03
  0.22365E-01
  0.21439E-01
 -0.10124E-01
 -0.42899E-02
  0.86371E-02
  0.13948E-01
  0.17617E-01
  0.17623E-01
  0.10386E-01
 -0.17585E-01
 -0.21885E-01
  0.14459E-01
  0.13337E-01
  0.18375E-01
  0.75956E-03
  0.28776E-01
  0.29941E-01
  0.15448E-02
  0.34252E-02
 -0.89518E-03
  0.14277E-01
  0.48702E-03
 -0.24719E-02
 -0.24092E-01
 -0.24462E-01
 -0.55406E-02
  0.31204E-01
  0.31155E-01
 -0.37507E-02
 -0.62332E-02
  0.41609E-02
 -0.98922E-03
 -0.44007E-02
 -0.11567E-02
 -0.18179E-01
 -0.31163E-01
 -0.43593E-02
  0.12696E-01
  0.13904E-01
 -0.61148E-02
 -0.11896E-02
  0.19967E-01
  0.20137E-01
  0.31168E-02
  0.14639E-01
  0.69548E-02
  0.20190E-01
 -0.13123E-01
 -0.50306E-02
 -0.10827E-01
 -0.50822E-02
 -0.18572E-01
 -0.25308E-02
  0.99950E-02
  0.79386E-02
 -0.13611E-01
  0.52920E-02
  0.33267E-02
  0.22110E-01
  0.15315E-01
 -0.27838E-01
  0.30372E-02
  0.21368E-01
 -0.99873E-03
  0.30941E-01
  0.30898E-01
  0.30762E-01
  0.30422E-01
  0.30574E-01
  0.30334E-01
  0.29740E-01
  0.14030E-01
  0.27437E-01
 -0.10972E-01
 -0.68096E-02
  0.14018E-01
  0.35922E-02
  0.44856E-02
  0.11390E-02
  0.26384E-02
 -0.25296E-01
  0.29514E-01
  0.30645E-01
  0.19847E-01
  0.18752E-01
  0.19067E-01
  0.23008E-01
 -0.29960E-01
 -0.29772E-01
  0.16604E-02
 -0.71647E-02
 -0.93940E-02
 -0.11649E-01
 -0.74392E-02
 -0.10412E-01
 -0.64864E-02
 -0.79484E-02
  0.32569E-02
 -0.41211E-02
 -0.45898E-02
  0.20553E-01
  0.19395E-01
  0.17960E-01
  0.18182E-01
  0.16791E-01
  0.16978E-01
  0.97567E-02
 -0.28223E-01
 -0.54801E-02
  0.31474E-01
  0.31636E-01
  0.16956E-01
 -0.19679E-01
  0.28549E-02
  0.22164E-03
  0.14635E-02
  0.21423E-02
  0.13293E-01
  0.14033E-01
  0.14608E-01
  0.15441E-02
  0.17236E-01
  0.17038E-01
 -0.31737E-01
 -0.16338E-01
  0.12355E-01
  0.29674E-01
  0.28877E-01
  0.29002E-01
  0.28018E-01
 -0.11588E-01
  0.15781E-01
 -0.34320E-01
 -0.35213E-01
 -0.30791E-01
 -0.36698E-01
  0.22700E-01
  0.23633E-01
  0.46566E-02
 -0.81542E-02
 -0.12641E-01
  0.95347E-02
  0.49509E-02
 -0.28242E-02
  0.15179E-01
  0.15478E-01
  0.15947E-01
  0.15976E-01
 -0.36093E-01
  0.30854E-01
  0.26746E-01
  0.25916E-01
  0.64953E-02
  0.14234E-01
  0.24046E-01
  0.60434E-02
  0.46953E-02
  0.14768E-01
 -0.12490E-01
 -0.13520E-01
  0.12508E-01
  0.13662E-01
  0.15717E-01
  0.15631E-01
 -0.28003E-01
 -0.35421E-01
 -0.38172E-01
 -0.13045E-01
 -0.73137E-02
 -0.55332E-02
  0.14622E-01
  0.10320E-01
  0.11033E-01
 -0.11296E-02
  0.35850E-02
 -0.12764E-03
  0.31885E-01
  0.32152E-01
  0.15356E-01
 -0.11645E-02
 -0.85990E-03
 -0.26705E-03
  0.60359E-02
  0.30337E-01
  0.31446E-01
  0.29094E-01
  0.30768E-02
  0.32355E-02
  0.46594E-02
  0.30765E-01
 -0.86415E-02
 -0.36157E-02
 -0.88089E-02
  0.31365E-01
  0.25081E-01
  0.24226E-01
  0.23140E-01
  0.40313E-02
  0.47100E-02
 -0.10978E-01
  0.89526E-02
  0.31032E-02
 -0.48082E-03
  0.19958E-02
 -0.16242E-02
 -0.35686E-01
 -0.38972E-01
 -0.39274E-01
  0.27844E-01
  0.26920E-01
  0.27211E-01
  0.26098E-01
  0.50667E-02
  0.20659E-01
  0.20775E-01
  0.61250E-02
  0.22293E-01
  0.21073E-01
  0.23588E-01
 -0.12827E-01
 -0.12884E-01
  0.16295E-01
  0.16170E-01
  0.15438E-01
  0.15654E-01
  0.19800E-01
  0.14703E-01
  0.17017E-01
  0.14380E-01
  0.16670E-01
 -0.20838E-01
  0.26782E-01
  0.14216E-01
  0.11728E-01
 -0.38691E-01
 -0.38719E-01
 -0.32070E-02
 -0.47396E-03
  0.32337E-01
  0.42510E-03
  0.17473E-01
 -0.29339E-01
 -0.33608E-01
 -0.43983E-01
 -0.36543E-01
 -0.26426E-01
 -0.26199E-01
 -0.19738E-02
  0.16684E-03
  0.19191E-01
  0.20335E-01
  0.20775E-01
  0.20657E-01
  0.21222E-01
  0.20512E-01
  0.19696E-01
  0.14322E-01
  0.14917E-01
  0.15759E-01
  0.15429E-01
  0.25784E-01
  0.24976E-01
  0.12248E-01
  0.13725E-01
  0.12512E-01
 -0.10520E-01
  0.16655E-01
  0.27876E-02
 -0.47942E-02
  0.20052E-01
  0.33592E-02
  0.28254E-02
  0.45904E-02
  0.14820E-01
 -0.25049E-01
  0.22786E-02
  0.32817E-02
 -0.39108E-01
 -0.36172E-01
 -0.23590E-01
 -0.16093E-01
 -0.12312E-01
 -0.20637E-01
 -0.69905E-02
 -0.10996E-01
 -0.66988E-03
 -0.26440E-02
  0.60540E-02
  0.57098E-02
  0.12937E-01
  0.11856E-01
  0.17341E-01
  0.19373E-01
  0.22069E-01
  0.24610E-01
  0.25865E-01
  0.28609E-01
  0.27913E-01
  0.31810E-01
  0.31207E-01
  0.33948E-01
  0.32744E-01
  0.34825E-01
  0.36425E-01
  0.36652E-01
  0.38574E-01
  0.37928E-01
  0.39930E-01
  0.38573E-01
  0.36857E-01
  0.36998E-01
  0.38606E-01
  0.36496E-01
  0.37309E-01
  0.35469E-01
  0.35746E-01
  0.37542E-01
  0.35397E-01
  0.33783E-01
  0.32841E-01
  0.37144E-01
  0.35613E-01
  0.31626E-01
  0.30162E-01
  0.30955E-01
  0.27776E-01
  0.26989E-01
  0.24490E-01
  0.38334E-01
  0.30614E-01
  0.33385E-01
  0.22088E-01
  0.20227E-01
  0.22520E-01
  0.18940E-01
  0.15534E-01
  0.15246E-01
  0.11020E-01
  0.11842E-01
  0.73374E-02
  0.90481E-02
  0.49820E-02
  0.71184E-02
  0.15767E-01
  0.31720E-01
  0.32476E-01
  0.24779E-01
  0.34808E-01
  0.33649E-01
  0.39359E-01
  0.35381E-01
  0.26515E-01
  0.10168E-01
  0.21386E-01
  0.20878E-01
  0.15305E-02
  0.13947E-01
 -0.38571E-01
 -0.11242E-01
 -0.17391E-01
  0.76506E-02
 -0.38161E-01
  0.13836E-01
  0.13087E-01
  0.21533E-01
  0.21909E-01
  0.46776E-02
 -0.71816E-04
  0.72453E-03
 -0.34132E-02
  0.12619E-01
 -0.42255E-02
  0.56206E-02
  0.38568E-01
  0.71063E-02
  0.18705E-01
  0.22992E-02
 -0.28520E-02
  0.17754E-01
 -0.37119E-03
 -0.53334E-02
 -0.35384E-02
 -0.39725E-01
  0.17485E-02
  0.35327E-01
  0.40019E-01
 -0.79914E-02
 -0.41190E-01
 -0.60833E-02
  0.24069E-01
  0.18844E-01
  0.15010E-01
  0.32676E-01
  0.19008E-01
  0.18230E-01
  0.11006E-01
 -0.98266E-02
 -0.13737E-01
 -0.14206E-01
  0.21849E-01
  0.26281E-01
 -0.41477E-01
  0.16127E-01
  0.30885E-01
 -0.19339E-01
 -0.16179E-01
 -0.70464E-02
  0.57732E-02
  0.21237E-02
 -0.57016E-03
  0.29379E-01
  0.23231E-01
  0.22500E-01
  0.20748E-01
  0.20654E-01
  0.24582E-01
  0.24127E-01
  0.34447E-01
  0.53643E-02
  0.44829E-02
  0.43873E-02
  0.23879E-01
  0.26390E-01
 -0.44893E-02
  0.13959E-01
  0.13842E-01
 -0.18604E-01
 -0.54818E-02
  0.15692E-01
  0.15841E-01
 -0.15127E-01
 -0.12012E-01
 -0.38850E-01
 -0.38320E-01
  0.16346E-01
  0.14660E-01
  0.14736E-01
  0.33313E-01
  0.32058E-01
  0.32236E-01
  0.17336E-01
  0.75706E-02
  0.14249E-02
 -0.22852E-01
 -0.27557E-01
  0.10814E-01
  0.37976E-01
  0.30024E-01
  0.28589E-01
  0.15907E-01
 -0.45953E-01
  0.32903E-01
  0.15501E-01
  0.15941E-01
  0.10370E-01
  0.15809E-01
  0.17578E-01
  0.14062E-01
  0.13483E-01
  0.11706E-01
  0.17205E-01
  0.16225E-01
  0.15235E-01
  0.11221E-01
  0.10704E-01
  0.19204E-01
 -0.40174E-01
 -0.20934E-01
 -0.22135E-01
 -0.17602E-01
 -0.22032E-01
  0.10568E-01
 -0.13300E-01
  0.24836E-01
 -0.18538E-01
  0.94212E-02
  0.76278E-02
  0.98552E-02
  0.35326E-01
  0.52714E-02
  0.81846E-02
  0.22732E-01
 -0.34971E-02
 -0.58140E-02
  0.59254E-02
 -0.10375E-01
 -0.41833E-01
  0.29154E-01
  0.30144E-01
  0.40819E-01
  0.41920E-01
  0.40432E-01
  0.41849E-01
  0.40260E-01
 -0.35784E-02
  0.23004E-01
  0.34646E-02
  0.44188E-01
  0.14757E-01
  0.14309E-01
  0.24166E-01
  0.25998E-01
  0.13550E-01
  0.38432E-02
  0.11110E-01
  0.18329E-03
 -0.65866E-02
  0.16300E-01
  0.14701E-01
 -0.10061E-01
 -0.13737E-01
 -0.13435E-01
 -0.12584E-01
  0.14383E-01
  0.18647E-01
  0.17249E-01
  0.16731E-01
  0.29810E-01
  0.42919E-01
  0.43269E-02
  0.35953E-02
  0.34041E-02
 -0.48272E-02
  0.35379E-02
  0.38593E-02
  0.16122E-01
 -0.57907E-02
 -0.29558E-01
  0.32649E-02
 -0.17334E-02
 -0.65051E-02
 -0.54507E-01
 -0.36926E-01
 -0.39054E-01
  0.30933E-01
  0.32759E-01
  0.32256E-01
 -0.25707E-04
 -0.35916E-01
 -0.30168E-01
 -0.45134E-02
 -0.48295E-02
  0.24106E-01
  0.24714E-01
  0.18760E-01
  0.34332E-01
 -0.44409E-02
 -0.12316E-01
 -0.15098E-01
  0.21595E-01
  0.22173E-01
  0.23192E-01
  0.21070E-01
  0.22873E-01
  0.22526E-01
  0.25060E-01
  0.25618E-01
  0.30901E-01
  0.30750E-01
  0.30745E-01
  0.30268E-01
  0.14885E-01
  0.30354E-01
  0.29698E-01
  0.30940E-01
  0.31026E-01
  0.28808E-01
  0.30563E-01
  0.29890E-01
 -0.11522E-01
  0.60050E-02
  0.61324E-02
  0.56386E-02
  0.65538E-02
  0.67374E-02
  0.60842E-02
  0.75502E-02
  0.70828E-02
  0.66402E-02
  0.51073E-02
  0.54786E-02
  0.27622E-02
  0.26765E-01
  0.27554E-01
  0.28846E-01
  0.29077E-01
  0.30014E-01
  0.29919E-01
  0.30350E-01
 -0.53090E-02
 -0.84116E-02
  0.15353E-01
  0.28260E-01
  0.30250E-01
  0.30574E-01
 -0.17044E-01
 -0.97563E-02
 -0.29074E-02
 -0.75859E-02
  0.24378E-01
  0.28808E-01
  0.28905E-01
  0.23951E-01
  0.15181E-01
  0.84013E-02
  0.89233E-02
  0.62564E-02
  0.61331E-02
  0.35282E-02
  0.25658E-02
  0.24387E-03
  0.17193E-02
  0.58908E-02
  0.60153E-02
  0.27740E-01
  0.37697E-02
  0.27689E-02
  0.28072E-02
  0.11294E-02
  0.17047E-02
  0.32761E-02
  0.26088E-02
  0.46051E-03
 -0.11279E-01
  0.22198E-01
  0.24326E-01
  0.25553E-01
  0.12096E-01
  0.53067E-02
  0.46979E-02
  0.54912E-02
  0.48122E-02
  0.57741E-02
  0.48869E-02
  0.35331E-02
  0.60696E-02
  0.60891E-02
  0.17116E-01
  0.17064E-01
  0.17961E-01
  0.17385E-01
  0.18131E-01
  0.18109E-01
  0.18822E-01
 -0.80202E-02
  0.23112E-01
 -0.47695E-01
  0.80290E-03
  0.33391E-02
 -0.76307E-02
  0.17027E-01
  0.36180E-02
  0.35541E-02
  0.39152E-02
  0.48035E-02
  0.50826E-02
  0.31181E-01
 -0.34351E-01
  0.48330E-02
  0.35203E-01
  0.15150E-01
 -0.11293E-02
  0.63720E-02
  0.18996E-01
  0.38797E-02
  0.13603E-01
 -0.13746E-02
  0.21048E-01
  0.35504E-02
  0.11681E-01
  0.59349E-02
  0.96694E-02
 -0.18871E-01
 -0.65914E-02
 -0.62871E-02
 -0.76835E-02
 -0.32381E-01
  0.74126E-02
  0.10116E-02
  0.19955E-01
  0.85406E-02
  0.19960E-01
  0.23245E-01
  0.19191E-01
  0.22010E-01
  0.25869E-01
  0.23954E-01
  0.21001E-01
  0.22418E-01
  0.24919E-01
  0.19764E-01
  0.20299E-01
  0.15244E-01
  0.14345E-01
 -0.28247E-01
  0.86221E-02
  0.96372E-02
  0.32516E-01
  0.31940E-01
  0.33057E-01
  0.32430E-01
  0.33413E-01
  0.55543E-02
  0.25807E-01
  0.48690E-02
  0.38900E-02
  0.15589E-01
 -0.15750E-02
  0.21463E-01
  0.58864E-02
  0.28283E-01
 -0.12249E-01
 -0.46927E-02
 -0.49603E-02
  0.45117E-02
  0.35967E-02
  0.57993E-02
  0.23979E-02
  0.24591E-02
  0.97708E-03
  0.18091E-02
  0.43614E-03
 -0.23645E-03
 -0.60349E-03
  0.58723E-03
  0.15471E-02
  0.20044E-02
  0.32333E-02
  0.32208E-02
  0.27478E-01
  0.20142E-01
  0.15638E-01
  0.92423E-02
  0.92265E-02
 -0.92125E-02
  0.42185E-03
 -0.97105E-02
 -0.24330E-01
 -0.18004E-01
  0.33127E-02
  0.21471E-02
  0.59707E-02
  0.33211E-02
 -0.28689E-02
  0.32109E-01
 -0.67070E-02
 -0.10621E-01
  0.13136E-02
  0.94666E-02
  0.21504E-01
  0.34947E-01
  0.60407E-02
  0.15598E-01
 -0.28755E-02
  0.14683E-01
  0.80666E-03
 -0.21148E-01
 -0.85541E-02
  0.46087E-02
  0.28517E-02
  0.19765E-01
 -0.50228E-02
  0.15450E-01
 -0.25074E-01
 -0.39037E-01
 -0.39203E-01
  0.47836E-02
 -0.17066E-01
  0.34399E-01
  0.83347E-02
  0.15009E-01
 -0.89673E-03
  0.26726E-01
  0.33524E-01
  0.23412E-01
 -0.39276E-01
  0.33857E-02
  0.58991E-02
  0.13617E-01
 -0.12584E-01
 -0.35592E-03
  0.17075E-01
  0.13792E-01
 -0.38030E-01
  0.24665E-02
  0.20137E-01
  0.18154E-02
  0.40858E-01
  0.40051E-02
 -0.17244E-01
  0.22378E-01
 -0.64923E-02
  0.16271E-01
  0.72783E-02
  0.16992E-01
  0.24820E-02
  0.16212E-01
 -0.11412E-01
 -0.55060E-02
  0.16143E-01
  0.27093E-01
 -0.42597E-02
 -0.93464E-03
  0.29740E-01
 -0.25257E-01
 -0.26386E-01
 -0.73119E-03
  0.21973E-01
 -0.52359E-01
 -0.60500E-01
  0.25018E-02
  0.19524E-01
 -0.14654E-01
 -0.22130E-01
 -0.40510E-01
  0.22806E-01
  0.64882E-02
  0.31120E-01
  0.19999E-01
 -0.11063E-02
 -0.19453E-01
  0.19923E-01
  0.11678E-01
  0.58890E-03
  0.18596E-01
  0.30318E-01
  0.15727E-01
  0.19436E-01
  0.30308E-01
  0.20152E-01
  0.41635E-02
  0.20686E-01
 -0.38965E-01
 -0.21587E-01
  0.16311E-01
 -0.12338E-01
  0.28252E-01
  0.12876E-01
  0.48251E-02
  0.21075E-01
  0.20704E-01
  0.48718E-02
  0.24256E-01
  0.24707E-01
  0.36429E-02
  0.20771E-01
  0.45941E-02
  0.18492E-01
 -0.96478E-02
  0.94736E-02
  0.27782E-01
  0.13900E-01
 -0.41156E-01
  0.20382E-01
  0.30306E-01
  0.16730E-02
 -0.35630E-01
  0.33532E-01
  0.15954E-01
  0.12707E-01
  0.10685E-01
  0.31431E-01
 -0.12053E-01
  0.20815E-01
  0.26087E-01
 -0.19640E-03
  0.19929E-01
  0.26439E-01
  0.17030E-01
  0.36205E-01
  0.33983E-01
  0.22592E-01
 -0.93898E-02
  0.20854E-01
  0.14931E-01
 -0.44979E-02
 -0.24056E-01