# vtk DataFile Version 2.0
Unstructured Grid UFVM-ECOMOD
ASCII
DATASET UNSTRUCTURED_GRID
 POINTS         2061  float
  0.00000E+00  0.00000E+00  0.00000E+00
  0.40000E+01  0.00000E+00  0.00000E+00
  0.40000E+01  0.20000E+01  0.00000E+00
  0.00000E+00  0.20000E+01  0.00000E+00
  0.11233E+01  0.11389E+01  0.00000E+00
  0.77667E+00  0.12509E+01  0.00000E+00
  0.11233E+01  0.13630E+01  0.00000E+00
  0.72667E+00  0.84537E+00  0.00000E+00
  0.72525E+00  0.78665E+00  0.00000E+00
  0.72110E+00  0.73162E+00  0.00000E+00
  0.71447E+00  0.68374E+00  0.00000E+00
  0.70578E+00  0.64602E+00  0.00000E+00
  0.69557E+00  0.62082E+00  0.00000E+00
  0.68449E+00  0.60973E+00  0.00000E+00
  0.67323E+00  0.61344E+00  0.00000E+00
  0.66251E+00  0.63173E+00  0.00000E+00
  0.65298E+00  0.66344E+00  0.00000E+00
  0.64526E+00  0.70659E+00  0.00000E+00
  0.63983E+00  0.75845E+00  0.00000E+00
  0.63702E+00  0.81578E+00  0.00000E+00
  0.63702E+00  0.87496E+00  0.00000E+00
  0.63983E+00  0.93229E+00  0.00000E+00
  0.64526E+00  0.98415E+00  0.00000E+00
  0.65298E+00  0.10273E+01  0.00000E+00
  0.66251E+00  0.10590E+01  0.00000E+00
  0.67323E+00  0.10773E+01  0.00000E+00
  0.68449E+00  0.10810E+01  0.00000E+00
  0.69557E+00  0.10699E+01  0.00000E+00
  0.70578E+00  0.10447E+01  0.00000E+00
  0.71447E+00  0.10070E+01  0.00000E+00
  0.72110E+00  0.95912E+00  0.00000E+00
  0.72525E+00  0.90409E+00  0.00000E+00
  0.10000E+00  0.00000E+00  0.00000E+00
  0.20000E+00  0.00000E+00  0.00000E+00
  0.30000E+00  0.00000E+00  0.00000E+00
  0.40000E+00  0.00000E+00  0.00000E+00
  0.50000E+00  0.00000E+00  0.00000E+00
  0.60000E+00  0.00000E+00  0.00000E+00
  0.70000E+00  0.00000E+00  0.00000E+00
  0.80000E+00  0.00000E+00  0.00000E+00
  0.90000E+00  0.00000E+00  0.00000E+00
  0.10000E+01  0.00000E+00  0.00000E+00
  0.11000E+01  0.00000E+00  0.00000E+00
  0.12000E+01  0.00000E+00  0.00000E+00
  0.13000E+01  0.00000E+00  0.00000E+00
  0.14000E+01  0.00000E+00  0.00000E+00
  0.15000E+01  0.00000E+00  0.00000E+00
  0.16000E+01  0.00000E+00  0.00000E+00
  0.17000E+01  0.00000E+00  0.00000E+00
  0.18000E+01  0.00000E+00  0.00000E+00
  0.19000E+01  0.00000E+00  0.00000E+00
  0.20000E+01  0.00000E+00  0.00000E+00
  0.21000E+01  0.00000E+00  0.00000E+00
  0.22000E+01  0.00000E+00  0.00000E+00
  0.23000E+01  0.00000E+00  0.00000E+00
  0.24000E+01  0.00000E+00  0.00000E+00
  0.25000E+01  0.00000E+00  0.00000E+00
  0.26000E+01  0.00000E+00  0.00000E+00
  0.27000E+01  0.00000E+00  0.00000E+00
  0.28000E+01  0.00000E+00  0.00000E+00
  0.29000E+01  0.00000E+00  0.00000E+00
  0.30000E+01  0.00000E+00  0.00000E+00
  0.31000E+01  0.00000E+00  0.00000E+00
  0.32000E+01  0.00000E+00  0.00000E+00
  0.33000E+01  0.00000E+00  0.00000E+00
  0.34000E+01  0.00000E+00  0.00000E+00
  0.35000E+01  0.00000E+00  0.00000E+00
  0.36000E+01  0.00000E+00  0.00000E+00
  0.37000E+01  0.00000E+00  0.00000E+00
  0.38000E+01  0.00000E+00  0.00000E+00
  0.39000E+01  0.00000E+00  0.00000E+00
  0.40000E+01  0.10000E+00  0.00000E+00
  0.40000E+01  0.20000E+00  0.00000E+00
  0.40000E+01  0.30000E+00  0.00000E+00
  0.40000E+01  0.40000E+00  0.00000E+00
  0.40000E+01  0.50000E+00  0.00000E+00
  0.40000E+01  0.60000E+00  0.00000E+00
  0.40000E+01  0.70000E+00  0.00000E+00
  0.40000E+01  0.80000E+00  0.00000E+00
  0.40000E+01  0.90000E+00  0.00000E+00
  0.40000E+01  0.10000E+01  0.00000E+00
  0.40000E+01  0.11000E+01  0.00000E+00
  0.40000E+01  0.12000E+01  0.00000E+00
  0.40000E+01  0.13000E+01  0.00000E+00
  0.40000E+01  0.14000E+01  0.00000E+00
  0.40000E+01  0.15000E+01  0.00000E+00
  0.40000E+01  0.16000E+01  0.00000E+00
  0.40000E+01  0.17000E+01  0.00000E+00
  0.40000E+01  0.18000E+01  0.00000E+00
  0.40000E+01  0.19000E+01  0.00000E+00
  0.39000E+01  0.20000E+01  0.00000E+00
  0.38000E+01  0.20000E+01  0.00000E+00
  0.37000E+01  0.20000E+01  0.00000E+00
  0.36000E+01  0.20000E+01  0.00000E+00
  0.35000E+01  0.20000E+01  0.00000E+00
  0.34000E+01  0.20000E+01  0.00000E+00
  0.33000E+01  0.20000E+01  0.00000E+00
  0.32000E+01  0.20000E+01  0.00000E+00
  0.31000E+01  0.20000E+01  0.00000E+00
  0.30000E+01  0.20000E+01  0.00000E+00
  0.29000E+01  0.20000E+01  0.00000E+00
  0.28000E+01  0.20000E+01  0.00000E+00
  0.27000E+01  0.20000E+01  0.00000E+00
  0.26000E+01  0.20000E+01  0.00000E+00
  0.25000E+01  0.20000E+01  0.00000E+00
  0.24000E+01  0.20000E+01  0.00000E+00
  0.23000E+01  0.20000E+01  0.00000E+00
  0.22000E+01  0.20000E+01  0.00000E+00
  0.21000E+01  0.20000E+01  0.00000E+00
  0.20000E+01  0.20000E+01  0.00000E+00
  0.19000E+01  0.20000E+01  0.00000E+00
  0.18000E+01  0.20000E+01  0.00000E+00
  0.17000E+01  0.20000E+01  0.00000E+00
  0.16000E+01  0.20000E+01  0.00000E+00
  0.15000E+01  0.20000E+01  0.00000E+00
  0.14000E+01  0.20000E+01  0.00000E+00
  0.13000E+01  0.20000E+01  0.00000E+00
  0.12000E+01  0.20000E+01  0.00000E+00
  0.11000E+01  0.20000E+01  0.00000E+00
  0.10000E+01  0.20000E+01  0.00000E+00
  0.90000E+00  0.20000E+01  0.00000E+00
  0.80000E+00  0.20000E+01  0.00000E+00
  0.70000E+00  0.20000E+01  0.00000E+00
  0.60000E+00  0.20000E+01  0.00000E+00
  0.50000E+00  0.20000E+01  0.00000E+00
  0.40000E+00  0.20000E+01  0.00000E+00
  0.30000E+00  0.20000E+01  0.00000E+00
  0.20000E+00  0.20000E+01  0.00000E+00
  0.10000E+00  0.20000E+01  0.00000E+00
  0.00000E+00  0.19000E+01  0.00000E+00
  0.00000E+00  0.18000E+01  0.00000E+00
  0.00000E+00  0.17000E+01  0.00000E+00
  0.00000E+00  0.16000E+01  0.00000E+00
  0.00000E+00  0.15000E+01  0.00000E+00
  0.00000E+00  0.14000E+01  0.00000E+00
  0.00000E+00  0.13000E+01  0.00000E+00
  0.00000E+00  0.12000E+01  0.00000E+00
  0.00000E+00  0.11000E+01  0.00000E+00
  0.00000E+00  0.10000E+01  0.00000E+00
  0.00000E+00  0.90000E+00  0.00000E+00
  0.00000E+00  0.80000E+00  0.00000E+00
  0.00000E+00  0.70000E+00  0.00000E+00
  0.00000E+00  0.60000E+00  0.00000E+00
  0.00000E+00  0.50000E+00  0.00000E+00
  0.00000E+00  0.40000E+00  0.00000E+00
  0.00000E+00  0.30000E+00  0.00000E+00
  0.00000E+00  0.20000E+00  0.00000E+00
  0.00000E+00  0.10000E+00  0.00000E+00
  0.11002E+01  0.11464E+01  0.00000E+00
  0.10771E+01  0.11538E+01  0.00000E+00
  0.10540E+01  0.11613E+01  0.00000E+00
  0.10309E+01  0.11688E+01  0.00000E+00
  0.10078E+01  0.11762E+01  0.00000E+00
  0.98467E+00  0.11837E+01  0.00000E+00
  0.96156E+00  0.11912E+01  0.00000E+00
  0.93844E+00  0.11986E+01  0.00000E+00
  0.91533E+00  0.12061E+01  0.00000E+00
  0.89222E+00  0.12136E+01  0.00000E+00
  0.86911E+00  0.12210E+01  0.00000E+00
  0.84600E+00  0.12285E+01  0.00000E+00
  0.82289E+00  0.12360E+01  0.00000E+00
  0.79978E+00  0.12435E+01  0.00000E+00
  0.79978E+00  0.12584E+01  0.00000E+00
  0.82289E+00  0.12659E+01  0.00000E+00
  0.84600E+00  0.12733E+01  0.00000E+00
  0.86911E+00  0.12808E+01  0.00000E+00
  0.89222E+00  0.12883E+01  0.00000E+00
  0.91533E+00  0.12957E+01  0.00000E+00
  0.93844E+00  0.13032E+01  0.00000E+00
  0.96156E+00  0.13107E+01  0.00000E+00
  0.98467E+00  0.13181E+01  0.00000E+00
  0.10078E+01  0.13256E+01  0.00000E+00
  0.10309E+01  0.13331E+01  0.00000E+00
  0.10540E+01  0.13406E+01  0.00000E+00
  0.10771E+01  0.13480E+01  0.00000E+00
  0.11002E+01  0.13555E+01  0.00000E+00
  0.11233E+01  0.13381E+01  0.00000E+00
  0.11233E+01  0.13132E+01  0.00000E+00
  0.11233E+01  0.12883E+01  0.00000E+00
  0.11233E+01  0.12634E+01  0.00000E+00
  0.11233E+01  0.12385E+01  0.00000E+00
  0.11233E+01  0.12136E+01  0.00000E+00
  0.11233E+01  0.11887E+01  0.00000E+00
  0.11233E+01  0.11638E+01  0.00000E+00
  0.72596E+00  0.81601E+00  0.00000E+00
  0.72318E+00  0.75914E+00  0.00000E+00
  0.64254E+00  0.73252E+00  0.00000E+00
  0.63842E+00  0.78711E+00  0.00000E+00
  0.63702E+00  0.84537E+00  0.00000E+00
  0.63842E+00  0.90363E+00  0.00000E+00
  0.64254E+00  0.95822E+00  0.00000E+00
  0.72318E+00  0.93160E+00  0.00000E+00
  0.72596E+00  0.87473E+00  0.00000E+00
  0.74623E+00  0.70374E+00  0.00000E+00
  0.11476E+01  0.11795E+01  0.00000E+00
  0.11428E+01  0.13264E+01  0.00000E+00
  0.20501E+01  0.84770E-01  0.00000E+00
  0.20513E+01  0.19161E+01  0.00000E+00
  0.75086E+00  0.83082E+00  0.00000E+00
  0.10802E+01  0.11281E+01  0.00000E+00
  0.29510E+01  0.19171E+01  0.00000E+00
  0.25540E+01  0.78210E-01  0.00000E+00
  0.24497E+01  0.19139E+01  0.00000E+00
  0.29535E+01  0.84730E-01  0.00000E+00
  0.16545E+01  0.96330E-01  0.00000E+00
  0.39091E+01  0.10592E+01  0.00000E+00
  0.98745E+00  0.11609E+01  0.00000E+00
  0.71788E+00  0.62645E+00  0.00000E+00
  0.74597E+00  0.94716E+00  0.00000E+00
  0.80605E+00  0.12789E+01  0.00000E+00
  0.92000E+00  0.13196E+01  0.00000E+00
  0.10129E+01  0.13491E+01  0.00000E+00
  0.16502E+01  0.19155E+01  0.00000E+00
  0.12478E+01  0.82260E-01  0.00000E+00
  0.63816E+00  0.63969E+00  0.00000E+00
  0.61877E+00  0.74255E+00  0.00000E+00
  0.61437E+00  0.82908E+00  0.00000E+00
  0.63522E+00  0.10499E+01  0.00000E+00
  0.61620E+00  0.95001E+00  0.00000E+00
  0.33500E+01  0.81140E-01  0.00000E+00
  0.33444E+01  0.19176E+01  0.00000E+00
  0.89845E+00  0.11909E+01  0.00000E+00
  0.93200E-01  0.15508E+01  0.00000E+00
  0.69847E+00  0.10839E+01  0.00000E+00
  0.68876E+00  0.10934E+01  0.00000E+00
  0.39109E+01  0.63916E+00  0.00000E+00
  0.70286E+00  0.10972E+01  0.00000E+00
  0.69242E+00  0.11076E+01  0.00000E+00
  0.39066E+01  0.13469E+01  0.00000E+00
  0.54882E+00  0.19235E+01  0.00000E+00
  0.11450E+01  0.12519E+01  0.00000E+00
  0.10822E+01  0.13717E+01  0.00000E+00
  0.82801E+00  0.12139E+01  0.00000E+00
  0.13560E+01  0.19166E+01  0.00000E+00
  0.94081E+00  0.73780E-01  0.00000E+00
  0.70738E+00  0.11117E+01  0.00000E+00
  0.69616E+00  0.11233E+01  0.00000E+00
  0.67954E+00  0.11181E+01  0.00000E+00
  0.68347E+00  0.11365E+01  0.00000E+00
  0.66340E+00  0.11298E+01  0.00000E+00
  0.66907E+00  0.11513E+01  0.00000E+00
  0.64512E+00  0.11441E+01  0.00000E+00
  0.74001E+00  0.10310E+01  0.00000E+00
  0.44749E+00  0.82430E-01  0.00000E+00
  0.67511E+00  0.60138E+00  0.00000E+00
  0.67440E-01  0.43983E+00  0.00000E+00
  0.85004E+00  0.19236E+01  0.00000E+00
[...]
 POINT_DATA         2061
  
 SCALARS WL      float 1
 LOOKUP_TABLE default
  0.38615E-01
 -0.19473E-03
 -0.22383E+00
  0.34340E-01
 -0.43890E-01
  0.34686E-01
 -0.49496E-01
 -0.56947E-01
 -0.53107E-01
 -0.49332E-01
 -0.48376E-01
 -0.49251E-01
 -0.50682E-01
 -0.45488E-01
 -0.19674E-01
  0.15954E-01
  0.40659E-01
  0.50745E-01
  0.56788E-01
  0.59538E-01
  0.59528E-01
  0.57640E-01
  0.52491E-01
  0.43480E-01
  0.20689E-01
 -0.24334E-01
 -0.48434E-01
 -0.51254E-01
 -0.51379E-01
 -0.52139E-01
 -0.54146E-01
 -0.56886E-01
  0.38371E-01
  0.37556E-01
  0.35954E-01
  0.33420E-01
  0.29763E-01
  0.24430E-01
  0.17201E-01
  0.92951E-02
  0.34998E-03
 -0.88155E-02
 -0.17813E-01
 -0.25552E-01
 -0.31264E-01
 -0.32851E-01
 -0.28013E-01
 -0.17878E-01
 -0.94729E-02
 -0.66529E-02
 -0.67049E-02
 -0.68973E-02
 -0.60791E-02
 -0.42417E-02
 -0.15038E-02
  0.16535E-02
  0.59888E-02
  0.10174E-01
  0.14130E-01
  0.15324E-01
  0.12661E-01
 -0.28079E-01
 -0.11820E+00
 -0.16764E+00
 -0.73394E-01
 -0.76569E-01
 -0.27701E-01
 -0.84474E-02
 -0.19186E-02
  0.28998E-03
  0.48767E-03
  0.00000E+00
  0.00000E+00
  0.00000E+00
  0.00000E+00
  0.00000E+00
  0.00000E+00
  0.00000E+00
  0.00000E+00
  0.00000E+00
  0.00000E+00
  0.00000E+00
  0.00000E+00
  0.00000E+00
  0.00000E+00
  0.00000E+00
  0.00000E+00
  0.00000E+00
  0.00000E+00
  0.00000E+00
 -0.26305E+00
 -0.44898E+00
 -0.52039E+00
 -0.47126E+00
 -0.35743E+00
 -0.35877E+00
 -0.38456E+00
 -0.36088E+00
 -0.10961E+01
 -0.11157E+01
 -0.10057E+01
 -0.87297E+00
 -0.84827E+00
 -0.21875E+01
 -0.18813E+01
 -0.33985E+00
 -0.93625E+00
 -0.90938E+00
 -0.27094E+00
 -0.26045E+00
 -0.24389E+00
 -0.26207E+00
 -0.26625E+00
 -0.26926E+00
 -0.26659E+00
 -0.24321E+00
 -0.81553E-01
 -0.73861E-02
  0.85320E-04
  0.66133E-02
  0.12124E-01
  0.16729E-01
  0.20715E-01
  0.23876E-01
  0.26632E-01
  0.28925E-01
  0.30825E-01
  0.32411E-01
  0.33633E-01
  0.34584E-01
  0.35075E-01
  0.35829E-01
  0.36826E-01
  0.38141E-01
  0.39600E-01
  0.41083E-01
  0.42918E-01
  0.44325E-01
  0.45523E-01
  0.46158E-01
  0.46172E-01
  0.45590E-01
  0.44540E-01
  0.43131E-01
  0.41757E-01
  0.40527E-01
  0.39508E-01
  0.38909E-01
 -0.51344E-01
 -0.59402E-01
 -0.65047E-01
 -0.64912E-01
 -0.62266E-01
 -0.56692E-01
 -0.51669E-01
 -0.41954E-01
 -0.32270E-01
 -0.19332E-01
 -0.76020E-02
  0.26519E-02
  0.16706E-01
  0.30142E-01
  0.30853E-01
  0.25858E-01
  0.22000E-01
  0.19980E-01
  0.17296E-01
  0.14902E-01
  0.12485E-01
  0.92855E-02
  0.66597E-02
  0.34788E-02
 -0.16975E-04
 -0.47575E-02
 -0.11792E-01
 -0.20770E-01
 -0.66934E-01
 -0.66642E-01
 -0.65432E-01
 -0.62241E-01
 -0.57547E-01
 -0.52884E-01
 -0.48402E-01
 -0.44794E-01
 -0.55289E-01
 -0.50894E-01
  0.54482E-01
  0.58546E-01
  0.59815E-01
  0.58842E-01
  0.55819E-01
 -0.55526E-01
 -0.57531E-01
 -0.48593E-01
 -0.46881E-01
 -0.66846E-01
 -0.64997E-02
 -0.33632E+00
 -0.56333E-01
 -0.58052E-01
 -0.42641E+00
  0.83539E-02
 -0.11243E+01
 -0.43908E-01
 -0.13186E-01
 -0.84057E+00
 -0.59548E-01
 -0.49605E-01
 -0.54821E-01
  0.27412E-01
  0.14089E-01
  0.21080E-02
 -0.31122E+00
 -0.29220E-01
  0.31810E-01
  0.55620E-01
  0.59610E-01
  0.37751E-01
  0.56624E-01
 -0.17270E+00
 -0.34261E+00
 -0.26882E-01
  0.36896E-01
 -0.50897E-01
 -0.43483E-01
 -0.15670E+00
 -0.47235E-01
 -0.32114E-01
 -0.33423E+01
  0.25426E-01
 -0.61010E-01
 -0.15223E-01
  0.76576E-02
 -0.13632E+00
 -0.39045E-02
 -0.37621E-01
 -0.20913E-01
 -0.11136E-01
 -0.43604E-02
  0.64404E-02
  0.86912E-02
  0.18071E-01
 -0.51510E-01
  0.31809E-01
 -0.27952E-01
  0.42195E-01
  0.14673E-01
  0.41963E-01
 -0.26106E-01
  0.46074E-01
 -0.13271E-01
 -0.51952E+00
 -0.40576E-01
 -0.28175E-01
 -0.41542E-01
 -0.52346E-01
 -0.27478E-01
 -0.39372E-01
 -0.14770E-01
  0.59147E-01
 -0.57450E-01
 -0.40504E+00
 -0.25788E-01
  0.12476E-01
 -0.41116E-02
  0.46022E-01
 -0.36638E+00
  0.30057E-01
 -0.31558E-01
 -0.65278E-02
 -0.24175E-02
 -0.14999E+01
 -0.11870E+01
  0.12409E-01
 -0.24022E+00
 -0.49935E+00
 -0.60281E+00
 -0.47875E-01
 -0.65929E-01
  0.21014E-01
  0.80527E-02
  0.39884E-01
 -0.12620E-01
 -0.23804E-02
 -0.51062E-01
  0.58511E-03
 -0.92334E-02
  0.34988E-01
  0.90315E-02
  0.62103E-02
  0.18246E-01
  0.25024E-01
  0.24317E-01
  0.29500E-01
  0.28357E-01
  0.32703E-01
  0.31047E-01
  0.34443E-01
  0.32823E-01
  0.36723E-01
  0.29959E-01
  0.31569E-01
  0.29217E-01
  0.30494E-01
  0.28472E-01
  0.29593E-01
  0.27585E-01
  0.32932E-01
  0.37362E-01
  0.40044E-01
  0.28568E-01
  0.26409E-01
  0.27307E-01
  0.29475E-01
  0.25217E-01
  0.39825E-01
  0.42499E-01
  0.24207E-01
  0.22955E-01
  0.21833E-01
  0.20392E-01
  0.19026E-01
  0.17514E-01
  0.15722E-01
  0.14193E-01
  0.11415E-01
  0.10305E-01
  0.70326E-02
  0.59839E-02
  0.18784E-02
  0.21748E-01
  0.28062E-01
  0.30209E-01
  0.10444E-02
 -0.46550E-02
  0.41722E-01
  0.44044E-01
  0.45460E-01
  0.46312E-01
  0.48236E-01
  0.48348E-01
  0.50478E-01
  0.49831E-01
  0.52321E-01
  0.50753E-01
  0.52685E-01
 -0.44071E-02
 -0.11146E-01
 -0.10014E-01
 -0.17501E-01
 -0.20010E-01
 -0.26874E-01
 -0.23429E-01
 -0.32627E-01
 -0.38073E-01
 -0.42486E-01
 -0.50470E-01
 -0.50899E-01
 -0.61199E-01
 -0.53401E-01
 -0.64075E-01
 -0.43499E-01
 -0.54271E-01
 -0.25596E-01
 -0.39884E-01
 -0.14175E-01
 -0.29208E-01
 -0.10495E-01
 -0.24241E-01
 -0.12985E-01
 -0.27886E-01
 -0.20993E-01
 -0.34652E-01
 -0.27777E-01
 -0.35198E-01
 -0.29828E-01
 -0.32117E-01
 -0.29458E-01
 -0.38491E-01
 -0.28982E-01
 -0.28482E-01
 -0.28420E-01
 -0.32510E-01
 -0.34243E-01
 -0.52516E-01
 -0.95993E-02
 -0.75693E-01
 -0.18801E+00
 -0.28317E-01
 -0.24350E+00
 -0.32050E+00
 -0.20400E+00
 -0.14461E+01
 -0.40753E+00
 -0.40758E+00
 -0.44933E+00
 -0.38688E+00
 -0.37401E+00
 -0.36699E+00
 -0.28106E+00
 -0.35522E+00
 -0.34228E+00
 -0.68679E+00
 -0.34316E+00
 -0.14582E+01
 -0.65116E+00
 -0.37627E+00
 -0.11945E+01
 -0.43781E+00
 -0.54002E+00
 -0.46351E+00
 -0.39340E+00
 -0.35528E+00
 -0.57527E+00
 -0.47909E+00
 -0.30030E+00
 -0.45154E+00
 -0.84059E+00
 -0.42199E-02
 -0.42211E-01
 -0.78022E+00
 -0.35070E+00
 -0.11199E+01
 -0.84925E+00
 -0.82097E+00
 -0.95732E+00
 -0.21885E+00
 -0.44316E-01
 -0.37518E+00
 -0.97211E+00
 -0.52286E+00
 -0.46123E+00
 -0.47245E+00
 -0.83708E+00
 -0.26796E+00
 -0.28664E+00
 -0.45986E+00
 -0.47169E+00
 -0.35399E+00
 -0.47426E+00
 -0.49873E+00
 -0.71262E-01
 -0.28907E+00
 -0.88617E+00
 -0.14140E+01
 -0.76196E+00
 -0.59383E+00
 -0.38343E+00
 -0.10527E+01
 -0.27658E+00
 -0.28541E-01
 -0.41471E+00
 -0.79303E+00
 -0.67271E+00
 -0.33207E+00
 -0.32476E+00
 -0.76992E+00
 -0.38357E+00
 -0.13251E+01
  0.24207E-01
  0.50905E-01
  0.52379E-01
  0.50432E-01
  0.51354E-01
  0.49345E-01
  0.49489E-01
  0.47767E-01
  0.47362E-01
  0.48997E-01
  0.46261E-01
  0.45218E-01
  0.43526E-01
  0.43066E-01
  0.40683E-01
  0.41101E-01
  0.38627E-01
  0.37153E-01
  0.35265E-01
  0.32810E-01
  0.31378E-01
  0.27661E-01
  0.29182E-01
  0.22167E-01
  0.22394E-01
  0.15678E-01
  0.36877E-01
  0.14482E-01
  0.69107E-02
  0.95796E-02
  0.48221E-03
 -0.44122E-02
 -0.10759E-01
 -0.41548E-01
 -0.22638E-01
 -0.33165E-01
 -0.38955E-02
 -0.14436E-01
 -0.23009E-01
 -0.24282E-01
 -0.34199E-01
 -0.31245E-01
 -0.41270E-01
 -0.35829E-01
 -0.40267E-01
 -0.36160E-01
 -0.39739E-01
 -0.35702E-01
 -0.40831E-01
 -0.36926E-01
 -0.44207E-01
 -0.40796E-01
 -0.50202E-01
 -0.46498E-01
 -0.57345E-01
 -0.56132E-01
 -0.64222E-01
 -0.57479E-01
 -0.63077E-01
 -0.68172E-01
 -0.52043E-01
 -0.34577E-01
 -0.57991E-01
 -0.43606E-01
 -0.49381E-01
 -0.37967E-01
 -0.43067E-01
 -0.37203E-01
 -0.34354E-01
 -0.42181E-01
 -0.32769E-01
 -0.41990E-01
 -0.45591E-01
 -0.43164E-01
 -0.45079E-01
 -0.44697E-01
 -0.36754E-01
 -0.36384E-01
 -0.50534E-01
 -0.25407E-01
 -0.23626E-01
 -0.17187E-01
 -0.37066E-01
 -0.67484E-01
 -0.68534E-01
 -0.67781E-01
 -0.66115E-01
 -0.65571E-01
 -0.60838E-01
 -0.62609E-01
 -0.54334E-01
 -0.60376E-01
 -0.53760E-01
 -0.60627E-01
 -0.65228E-01
 -0.62075E-01
 -0.65646E-01
 -0.64243E-01
 -0.65769E-01
 -0.65705E-01
 -0.65621E-01
 -0.65630E-01
 -0.64891E-01
 -0.65222E-01
 -0.64329E-01
 -0.63513E-01
 -0.64712E-01
 -0.62916E-01
 -0.61607E-01
 -0.61070E-01
 -0.59408E-01
 -0.60325E-01
 -0.57819E-01
 -0.55169E-01
 -0.57031E-01
 -0.55305E-01
 -0.60448E-01
 -0.59161E-01
 -0.61344E-02
 -0.15416E-01
 -0.13809E-01
 -0.24297E-01
 -0.17105E-01
 -0.81197E-02
 -0.74299E-02
 -0.55482E-01
 -0.47550E-01
 -0.51438E-01
 -0.47798E-02
  0.98844E-02
 -0.62412E-01
 -0.60693E-01
 -0.61912E-01
 -0.53706E-02
 -0.48607E-02
  0.28754E-01
  0.30796E-01
  0.32246E-01
  0.22285E-03
 -0.42939E-01
  0.44765E-01
 -0.96920E+00
 -0.51474E+00
 -0.13249E+01
 -0.27169E-01
 -0.30437E-01
 -0.25357E+00
 -0.89869E+00
 -0.42716E+00
 -0.26221E-01
  0.26535E-01
 -0.62803E+00
 -0.41505E+00
 -0.61753E+00
 -0.72129E-01
 -0.38785E+00
 -0.46327E+00
 -0.38591E+00
 -0.38492E+00
 -0.46967E+00
 -0.42374E+00
 -0.45793E-01
 -0.66190E-01
 -0.32959E-01
 -0.76430E-01
 -0.30483E-01
 -0.32945E-02
 -0.50377E-01
 -0.20638E-02
 -0.11311E-01
 -0.81233E+00
 -0.88197E-01
 -0.68123E-02
 -0.74647E-01
  0.17679E-01
  0.13000E-01
 -0.59655E-01
  0.44476E-01
 -0.44639E-01
  0.39378E-01
 -0.97258E+00
 -0.13324E+01
 -0.58225E+00
 -0.20587E-01
 -0.28240E+00
 -0.16329E+00
 -0.34273E-01
 -0.85071E-01
 -0.39451E-01
 -0.16765E+00
 -0.12542E+00
 -0.51242E+00
 -0.89238E+00
 -0.38652E+00
  0.41064E-01
  0.38964E-01
 -0.44451E-01
 -0.50136E-01
  0.30009E-02
 -0.63660E-01
 -0.66284E-01
  0.44494E-01
 -0.62796E-01
 -0.63480E-01
 -0.35483E+00
 -0.56283E+00
 -0.25373E-01
  0.53771E-01
  0.32662E-01
 -0.33925E-01
 -0.17082E-01
 -0.61050E+00
  0.39668E-01
  0.14965E-01
 -0.65111E-01
 -0.64309E-01
 -0.66041E+00
  0.47997E-01
  0.49494E-01
 -0.36530E+00
  0.50546E-01
  0.26613E-01
 -0.67570E+00
 -0.38264E+00
 -0.60341E-01
 -0.61298E-01
  0.29483E-01
  0.27352E-01
 -0.54657E-01
 -0.52905E-01
 -0.53763E-01
 -0.51544E-01
 -0.50733E-01
 -0.46966E-01
  0.93167E-02
  0.21219E-01
 -0.52489E-02
 -0.10540E-01
 -0.83446E+00
 -0.32524E+00
 -0.11908E+01
 -0.62967E+00
 -0.21971E+00
  0.54500E-01
  0.34153E-01
 -0.45622E-01
 -0.54983E-01
 -0.35567E-01
 -0.67841E-01
 -0.40772E-01
 -0.27995E-02
 -0.59028E-01
 -0.59109E-01
 -0.53822E+00
 -0.30231E+00
 -0.14854E+01
 -0.14467E+01
 -0.16533E+01
 -0.50020E+00
 -0.48920E+00
 -0.51021E+00
 -0.54647E+00
 -0.68794E+00
 -0.56675E+00
 -0.71852E+00
 -0.56338E+00
 -0.67198E+00
 -0.74098E+00
 -0.59911E+00
 -0.65859E+00
 -0.58675E+00
 -0.54905E+00
 -0.59474E+00
 -0.53558E+00
 -0.48358E-02
 -0.52375E-01
 -0.65109E-01
 -0.36906E+00
 -0.20609E+00
 -0.48958E-01
 -0.34601E+00
 -0.16582E+01
 -0.64370E+00
 -0.62371E+00
 -0.18200E+01
 -0.54910E+00
 -0.66903E-01
 -0.31742E+00
 -0.27794E+00
 -0.45959E+00
 -0.27587E-01
  0.40417E-01
 -0.62947E-01
 -0.75628E-01
 -0.15553E-02
 -0.39511E+00
 -0.49184E+00
 -0.61810E-01
 -0.61054E-01
 -0.62239E+00
 -0.65977E+00
 -0.93615E+00
 -0.62476E-01
 -0.61419E-01
 -0.62174E-01
 -0.60528E-01
 -0.60806E-01
 -0.58432E-01
 -0.58124E-01
 -0.55459E-01
 -0.43121E-01
 -0.48948E-01
 -0.36493E-01
 -0.18495E-01
 -0.28893E+00
  0.48761E-01
 -0.64061E-01
 -0.67668E-01
 -0.64020E-01
  0.18700E-01
  0.27620E-01
  0.31642E-01
 -0.72474E-01
 -0.82237E-01
 -0.30093E+00
 -0.68152E+00
 -0.77464E+00
 -0.49534E-01
 -0.28791E+00
  0.34375E-01
  0.33000E-01
  0.35895E-01
 -0.37993E+00
 -0.73970E+00
 -0.82308E+00
 -0.48194E+00
 -0.10370E+01
 -0.77026E+00
 -0.68150E+00
 -0.77024E-01
 -0.38197E-01
 -0.12401E-01
 -0.60356E-01
 -0.63397E+00
 -0.40613E+00
 -0.46742E-01
 -0.35086E-01
 -0.60477E+00
 -0.67036E-01
  0.28250E-01
 -0.32147E-01
 -0.58154E-01
 -0.29227E-01
  0.36969E-01
 -0.44670E+00
 -0.82945E-01
 -0.41486E+00
 -0.52561E-01
 -0.54575E-01
 -0.69213E+00
 -0.44926E-01
 -0.31247E+00
 -0.40600E+00
 -0.43298E+00
 -0.25830E+00
 -0.26356E+00
 -0.62745E-01
 -0.48054E+00
 -0.17268E+00
  0.26114E-01
  0.23157E-01
  0.25479E-01
  0.37386E-01
  0.44711E-01
  0.43396E-01
  0.48296E-01
  0.46427E-01
 -0.31351E-02
 -0.48891E-01
 -0.81932E-02
 -0.54582E-01
 -0.52717E-01
 -0.76157E-01
  0.13199E-01
  0.18847E-01
 -0.59294E-01
  0.35169E-01
  0.40100E-01
 -0.38887E+00
 -0.45195E+00
 -0.28234E+00
 -0.46736E+00
 -0.84449E-01
 -0.66331E-01
  0.12267E-01
 -0.57655E-01
 -0.56306E-01
 -0.48654E-01
 -0.63929E-01
 -0.63347E-01
 -0.59102E-01
 -0.10339E+01
 -0.52772E-01
 -0.51274E-01
 -0.30108E+00
 -0.61403E-01
 -0.55506E-01
 -0.65873E-01
 -0.64902E+00
 -0.40478E-01
 -0.15455E+01
 -0.17019E+01
 -0.29462E+00
 -0.54393E+00
 -0.14925E+01
 -0.57184E+00
 -0.56953E-01
  0.33758E-01
 -0.24269E+00
 -0.60269E-01
 -0.58304E-01
 -0.21500E+00
  0.26937E-01
  0.24980E-01
  0.23719E-01
 -0.10061E-02
 -0.62244E+00
 -0.61781E-01
 -0.10437E+01
 -0.30593E+00
 -0.28043E+00
 -0.23945E+00
 -0.84731E+00
 -0.66302E+00
 -0.46584E-01
 -0.39058E-01
 -0.48146E-01
 -0.42701E-01
 -0.49173E-01
 -0.28604E-01
 -0.33394E-01
 -0.29264E+00
  0.44538E-01
  0.34547E-01
  0.33317E-01
 -0.31716E+00
 -0.42763E+00
 -0.64890E+00
 -0.46695E+00
 -0.31234E+00
 -0.67390E+00
 -0.41991E-02
 -0.11717E+01
 -0.99804E+00
 -0.12939E+01
 -0.29000E+00
 -0.29152E+00
 -0.37722E+00
 -0.35406E+00
 -0.74096E+00
 -0.53806E-01
 -0.17801E-01
 -0.80050E-01
 -0.73801E-01
 -0.43480E+00
 -0.95445E+00
 -0.18631E+01
 -0.85425E+00
 -0.20718E-01
 -0.16417E-01
 -0.26069E-01
  0.11475E-02
 -0.52696E-01
 -0.54796E-01
 -0.51114E-01
 -0.53073E-01
 -0.22634E-01
 -0.31195E-01
 -0.34087E-01
 -0.35424E-01
 -0.36841E-01
 -0.35584E-01
 -0.35867E-01
 -0.33771E-01
 -0.33756E-01
 -0.31611E-01
 -0.31107E-01
 -0.28980E-01
 -0.27050E-01
 -0.24167E-01
 -0.30098E-01
 -0.21538E-01
 -0.17797E-01
 -0.21540E-01
 -0.14147E-01
 -0.34828E-01
 -0.70703E-01
 -0.74325E-02
 -0.65901E-02
 -0.37234E+00
 -0.40180E+00
 -0.50904E+00
 -0.16099E-02
  0.18882E-03
  0.48686E-03
  0.25081E-02
 -0.50949E-01
 -0.51168E-01
 -0.50405E-01
 -0.50867E-01
 -0.28586E+00
 -0.64033E-01
 -0.45400E-01
 -0.41411E-01
  0.22250E-01
  0.21023E-01
  0.19184E-01
 -0.55669E+00
 -0.86369E-01
 -0.63682E-01
 -0.29739E-01
 -0.32842E+00
 -0.32766E+00
 -0.25627E+00
 -0.55324E-01
  0.50298E-01
  0.52161E-01
 -0.50127E-01
  0.38524E-01
  0.39734E-01
  0.41550E-01
 -0.45514E+00
 -0.52410E+00
 -0.55544E+00
 -0.63977E+00
 -0.28858E-01
 -0.30857E+00
 -0.24554E-01
  0.40217E-01
  0.47140E-01
 -0.75256E-01
 -0.67830E-01
 -0.36310E+00
  0.31138E-01
  0.36801E-01
  0.30164E-01
  0.28881E-01
  0.33187E-01
 -0.59889E+00
  0.37201E-01
 -0.40243E-01
  0.34681E-01
 -0.37881E+00
 -0.62765E+00
 -0.36953E+00
 -0.34618E-01
 -0.10243E-01
 -0.55648E-02
 -0.56849E+00
 -0.12175E+00
 -0.38271E+00
  0.28077E-02
 -0.13492E-01
 -0.11862E-01
 -0.63996E-02
 -0.17686E-01
 -0.56736E-01
 -0.56752E-01
 -0.21729E+00
 -0.11942E+00
  0.22798E-01
 -0.75025E+00
 -0.45531E+00
 -0.12989E+01
  0.17924E-01
  0.15354E-01
  0.88490E-02
 -0.50170E+00
 -0.96392E+00
 -0.67128E-01
 -0.56210E-01
 -0.55378E-01
 -0.41555E-01
 -0.40067E-01
 -0.27426E-01
 -0.30966E-01
 -0.19358E-01
 -0.15117E-01
 -0.90035E-02
 -0.63764E-02
 -0.39765E-01
 -0.37388E-01
 -0.85506E+00
 -0.44360E-01
  0.22556E-01
  0.23441E-01
  0.21824E-01
  0.24404E-01
  0.25968E-01
  0.25584E-01
  0.25940E-01
  0.25573E-01
  0.25037E-01
  0.25673E-01
  0.23774E-01
  0.23567E-01
  0.21546E-01
  0.22050E-01
  0.19706E-01
  0.18647E-01
  0.16884E-01
  0.15393E-01
  0.13749E-01
  0.11958E-01
  0.10060E-01
  0.11986E-01
  0.79975E-02
  0.57401E-02
  0.17203E-01
  0.39972E-02
  0.12099E-02
 -0.41107E-01
 -0.63582E-01
 -0.67596E-01
 -0.48410E-02
 -0.46624E-01
 -0.35638E-01
 -0.70009E+00
 -0.81800E+00
 -0.11639E-01
 -0.26117E+00
 -0.14011E-01
 -0.48964E-01
  0.30692E-01
 -0.10875E+00
 -0.52474E-01
 -0.55089E-01
  0.33599E-01
  0.37688E-01
  0.24960E-01
 -0.27510E+00
 -0.42154E-01
 -0.30569E+00
 -0.89918E+00
 -0.55262E-01
 -0.30508E-01
 -0.64029E-01
 -0.82447E+00
 -0.43577E+00
 -0.31056E+00
 -0.46098E+00
  0.32228E-02
  0.54689E-02
 -0.36382E+00
 -0.60607E-02
 -0.61938E-02
 -0.44097E+00
 -0.50138E-01
 -0.50911E-01
 -0.22251E-02
  0.28041E-02
 -0.10179E-02
  0.77157E-02
  0.20310E-01
 -0.30449E+00
 -0.35844E+00
 -0.35522E+00
 -0.28275E+00
 -0.79560E-02
 -0.73396E-02
 -0.67235E-01
 -0.40451E-01
 -0.44116E-01
  0.27148E-01
 -0.62100E+00
 -0.76455E+00
 -0.62353E-01
 -0.61913E+00
 -0.36359E-01
 -0.53640E-01
 -0.39702E-01
  0.33247E-01
  0.40814E-01
  0.39118E-01
  0.42447E-01
  0.43434E-01
  0.43948E-01
  0.45065E-01
  0.45154E-01
  0.46394E-01
 -0.11596E-01
 -0.70279E-01
 -0.19125E-01
 -0.24733E-01
  0.17472E-01
  0.14277E-01
  0.11479E-01
  0.10277E-01
  0.69784E-02
  0.53847E-02
  0.81373E-02
  0.50269E-01
  0.51600E-01
  0.48785E-01
  0.52244E-01
  0.49616E-01
  0.52093E-01
  0.54546E-01
 -0.56671E+00
 -0.62363E+00
 -0.48894E+00
 -0.71505E+00
  0.26982E-01
  0.75800E-02
  0.54655E-01
  0.54932E-01
  0.52547E-01
  0.54469E-01
  0.56646E-01
 -0.26202E-01
 -0.31965E-01
 -0.31622E-01
 -0.38305E-01
 -0.27310E+00
 -0.13160E+01
 -0.37373E-01
  0.31172E-02
 -0.22851E-02
  0.41147E-03
 -0.73928E+00
 -0.72096E+00
 -0.43942E-01
 -0.70944E+00
  0.52584E-01
 -0.37854E-02
  0.42432E-02
  0.13299E-01
  0.15064E-01
  0.19934E-01
  0.20666E-01
  0.25503E-01
  0.25575E-01
  0.25074E-01
  0.29765E-01
 -0.55500E-01
 -0.65212E-01
 -0.58488E-01
 -0.65060E-01
 -0.15994E+00
 -0.37553E+00
 -0.42667E+00
 -0.48444E-01
 -0.41355E-01
 -0.30941E-01
 -0.54167E-01
  0.54413E-01
  0.56592E-01
  0.55951E-01
  0.57814E-01
  0.56847E-01
  0.55940E-01
  0.57725E-01
  0.58668E-01
  0.54980E-01
  0.56737E-01
  0.52723E-01
  0.58226E-01
  0.58207E-01
 -0.51622E-01
 -0.50278E-01
 -0.44175E-01
  0.18683E-01
 -0.66884E-01
 -0.51194E-01
  0.26076E-01
 -0.54963E-01
 -0.56951E-01
 -0.58371E-01
 -0.58172E-01
 -0.37792E-01
 -0.43891E-01
 -0.50144E-01
 -0.42943E-01
 -0.39740E-01
 -0.51333E-01
 -0.57679E-01
 -0.68531E-01
 -0.14419E-01
 -0.34557E+00
 -0.29672E+00
 -0.34960E-01
  0.20925E-01
 -0.10681E-01
  0.75805E-02
 -0.34099E+00
  0.23781E-01
  0.20744E-01
  0.84560E-03
 -0.68470E-01
 -0.68075E-01
 -0.14651E-01
  0.25341E-01
  0.13731E-01
 -0.63239E-01
  0.45939E-01
  0.46981E-01
  0.43406E-01
  0.47432E-01
 -0.38999E+00
 -0.61302E-01
 -0.61086E-01
  0.41008E-02
 -0.29534E+00
 -0.41668E+00
  0.40244E-01
  0.38656E-01
 -0.53389E-01
 -0.27306E-01
 -0.30222E-01
 -0.30986E-01
 -0.31721E-01
 -0.31565E-01
 -0.32933E-01
 -0.34848E-01
 -0.30742E-01
 -0.31424E-01
 -0.25226E-01
 -0.42252E+00
 -0.39492E-01
  0.46356E-01
  0.46951E-01
  0.46204E-01
  0.45282E-01
  0.45117E-01
  0.46301E-01
  0.44172E-01
  0.43816E-01
  0.46783E-01
  0.47897E-01
  0.44888E-01
  0.43009E-01
  0.42310E-01
  0.41185E-01
  0.40790E-01
  0.39437E-01
  0.39411E-01
  0.37842E-01
  0.38138E-01
  0.36479E-01
  0.35309E-01
 -0.23958E-01
 -0.16857E+01
 -0.16601E+01
 -0.51003E-01
 -0.64159E-01
 -0.58116E-01
 -0.75772E-01
  0.95988E-02
 -0.41813E-01
 -0.57552E-01
 -0.49570E-01
 -0.45048E-01
 -0.48225E-01
 -0.27830E-02
 -0.13927E-01
  0.37958E-01
  0.43732E-01
  0.43077E-01
 -0.53639E-01
 -0.51701E-01
 -0.46993E-01
 -0.35096E+00
 -0.12067E+00
 -0.38801E-03
  0.27621E-01
  0.26573E-01
  0.40429E-01
 -0.90462E+00
 -0.56080E+00
 -0.33171E-01
 -0.33182E-01
 -0.50184E-01
 -0.52360E-01
 -0.49960E-01
 -0.54726E-01
  0.27977E-01
 -0.45349E+00
  0.38079E-01
 -0.71581E+00
 -0.23651E-01
 -0.37918E-01
 -0.40184E-01
 -0.48380E-01
 -0.46635E-01
 -0.29068E-01
 -0.34092E-01
  0.34918E-01
  0.56406E-02
  0.15085E-01
 -0.13366E-01
 -0.22213E-01
 -0.74848E-02
  0.34047E-01
  0.35091E-01
 -0.55158E-01
  0.58251E-01
 -0.58036E-01
 -0.51040E-01
 -0.54441E-01
 -0.44599E-01
 -0.30880E-01
  0.29852E-01
  0.35868E-01
 -0.56391E-01
  0.18670E-01
 -0.65318E-01
 -0.57536E-01
 -0.57578E-01
 -0.58028E+00
 -0.67351E-02
 -0.65793E-01
 -0.64530E-01
  0.31651E-01
  0.33030E-01
  0.35429E-01
  0.35729E-01
 -0.50664E-01
 -0.59003E-01
 -0.63797E-01
 -0.65499E-01
 -0.31619E-01
 -0.20066E-01
 -0.22317E-01
 -0.13396E-01
 -0.96490E-02
  0.10235E-02
 -0.97899E-02
 -0.56414E-01
  0.19239E-01
 -0.66549E+00
 -0.32682E-01
 -0.19402E-01
  0.56956E-01
  0.43576E-01
 -0.51058E-02
 -0.36072E-02
 -0.54822E+00
 -0.11282E+01
 -0.26246E+00
  0.47316E-01
 -0.51273E-01
 -0.55713E-01
 -0.77770E-01
 -0.65216E-01
 -0.45461E-01
 -0.57927E-01
  0.21999E-01
  0.12710E-01
  0.37146E-02
 -0.12194E-02
 -0.21415E+00
 -0.59218E-01
 -0.31103E-01
  0.31774E-01