# vtk DataFile Version 2.0
Unstructured Grid UFVM-ECOMOD
ASCII
DATASET UNSTRUCTURED_GRID
 POINTS         1810  float
  0.00000E+00  0.00000E+00  0.00000E+00
  0.40000E+01  0.00000E+00  0.00000E+00
  0.40000E+01  0.20000E+01  0.00000E+00
  0.00000E+00  0.20000E+01  0.00000E+00
  0.12217E+01  0.98333E+00  0.00000E+00
  0.81167E+00  0.11389E+01  0.00000E+00
  0.12217E+01  0.12944E+01  0.00000E+00
  0.10000E+00  0.00000E+00  0.00000E+00
  0.20000E+00  0.00000E+00  0.00000E+00
  0.30000E+00  0.00000E+00  0.00000E+00
  0.40000E+00  0.00000E+00  0.00000E+00
  0.50000E+00  0.00000E+00  0.00000E+00
  0.60000E+00  0.00000E+00  0.00000E+00
  0.70000E+00  0.00000E+00  0.00000E+00
  0.80000E+00  0.00000E+00  0.00000E+00
  0.90000E+00  0.00000E+00  0.00000E+00
  0.10000E+01  0.00000E+00  0.00000E+00
  0.11000E+01  0.00000E+00  0.00000E+00
  0.12000E+01  0.00000E+00  0.00000E+00
  0.13000E+01  0.00000E+00  0.00000E+00
  0.14000E+01  0.00000E+00  0.00000E+00
  0.15000E+01  0.00000E+00  0.00000E+00
  0.16000E+01  0.00000E+00  0.00000E+00
  0.17000E+01  0.00000E+00  0.00000E+00
  0.18000E+01  0.00000E+00  0.00000E+00
  0.19000E+01  0.00000E+00  0.00000E+00
  0.20000E+01  0.00000E+00  0.00000E+00
  0.21000E+01  0.00000E+00  0.00000E+00
  0.22000E+01  0.00000E+00  0.00000E+00
  0.23000E+01  0.00000E+00  0.00000E+00
  0.24000E+01  0.00000E+00  0.00000E+00
  0.25000E+01  0.00000E+00  0.00000E+00
  0.26000E+01  0.00000E+00  0.00000E+00
  0.27000E+01  0.00000E+00  0.00000E+00
  0.28000E+01  0.00000E+00  0.00000E+00
  0.29000E+01  0.00000E+00  0.00000E+00
  0.30000E+01  0.00000E+00  0.00000E+00
  0.31000E+01  0.00000E+00  0.00000E+00
  0.32000E+01  0.00000E+00  0.00000E+00
  0.33000E+01  0.00000E+00  0.00000E+00
  0.34000E+01  0.00000E+00  0.00000E+00
  0.35000E+01  0.00000E+00  0.00000E+00
  0.36000E+01  0.00000E+00  0.00000E+00
  0.37000E+01  0.00000E+00  0.00000E+00
  0.38000E+01  0.00000E+00  0.00000E+00
  0.39000E+01  0.00000E+00  0.00000E+00
  0.40000E+01  0.10000E+00  0.00000E+00
  0.40000E+01  0.20000E+00  0.00000E+00
  0.40000E+01  0.30000E+00  0.00000E+00
  0.40000E+01  0.40000E+00  0.00000E+00
  0.40000E+01  0.50000E+00  0.00000E+00
  0.40000E+01  0.60000E+00  0.00000E+00
  0.40000E+01  0.70000E+00  0.00000E+00
  0.40000E+01  0.80000E+00  0.00000E+00
  0.40000E+01  0.90000E+00  0.00000E+00
  0.40000E+01  0.10000E+01  0.00000E+00
  0.40000E+01  0.11000E+01  0.00000E+00
  0.40000E+01  0.12000E+01  0.00000E+00
  0.40000E+01  0.13000E+01  0.00000E+00
  0.40000E+01  0.14000E+01  0.00000E+00
  0.40000E+01  0.15000E+01  0.00000E+00
  0.40000E+01  0.16000E+01  0.00000E+00
  0.40000E+01  0.17000E+01  0.00000E+00
  0.40000E+01  0.18000E+01  0.00000E+00
  0.40000E+01  0.19000E+01  0.00000E+00
  0.39000E+01  0.20000E+01  0.00000E+00
  0.38000E+01  0.20000E+01  0.00000E+00
  0.37000E+01  0.20000E+01  0.00000E+00
  0.36000E+01  0.20000E+01  0.00000E+00
  0.35000E+01  0.20000E+01  0.00000E+00
  0.34000E+01  0.20000E+01  0.00000E+00
  0.33000E+01  0.20000E+01  0.00000E+00
  0.32000E+01  0.20000E+01  0.00000E+00
  0.31000E+01  0.20000E+01  0.00000E+00
  0.30000E+01  0.20000E+01  0.00000E+00
  0.29000E+01  0.20000E+01  0.00000E+00
  0.28000E+01  0.20000E+01  0.00000E+00
  0.27000E+01  0.20000E+01  0.00000E+00
  0.26000E+01  0.20000E+01  0.00000E+00
  0.25000E+01  0.20000E+01  0.00000E+00
  0.24000E+01  0.20000E+01  0.00000E+00
  0.23000E+01  0.20000E+01  0.00000E+00
  0.22000E+01  0.20000E+01  0.00000E+00
  0.21000E+01  0.20000E+01  0.00000E+00
  0.20000E+01  0.20000E+01  0.00000E+00
  0.19000E+01  0.20000E+01  0.00000E+00
  0.18000E+01  0.20000E+01  0.00000E+00
  0.17000E+01  0.20000E+01  0.00000E+00
  0.16000E+01  0.20000E+01  0.00000E+00
  0.15000E+01  0.20000E+01  0.00000E+00
  0.14000E+01  0.20000E+01  0.00000E+00
  0.13000E+01  0.20000E+01  0.00000E+00
  0.12000E+01  0.20000E+01  0.00000E+00
  0.11000E+01  0.20000E+01  0.00000E+00
  0.10000E+01  0.20000E+01  0.00000E+00
  0.90000E+00  0.20000E+01  0.00000E+00
  0.80000E+00  0.20000E+01  0.00000E+00
  0.70000E+00  0.20000E+01  0.00000E+00
  0.60000E+00  0.20000E+01  0.00000E+00
  0.50000E+00  0.20000E+01  0.00000E+00
  0.40000E+00  0.20000E+01  0.00000E+00
  0.30000E+00  0.20000E+01  0.00000E+00
  0.20000E+00  0.20000E+01  0.00000E+00
  0.10000E+00  0.20000E+01  0.00000E+00
  0.00000E+00  0.19000E+01  0.00000E+00
  0.00000E+00  0.18000E+01  0.00000E+00
  0.00000E+00  0.17000E+01  0.00000E+00
  0.00000E+00  0.16000E+01  0.00000E+00
  0.00000E+00  0.15000E+01  0.00000E+00
  0.00000E+00  0.14000E+01  0.00000E+00
  0.00000E+00  0.13000E+01  0.00000E+00
  0.00000E+00  0.12000E+01  0.00000E+00
  0.00000E+00  0.11000E+01  0.00000E+00
  0.00000E+00  0.10000E+01  0.00000E+00
  0.00000E+00  0.90000E+00  0.00000E+00
  0.00000E+00  0.80000E+00  0.00000E+00
  0.00000E+00  0.70000E+00  0.00000E+00
  0.00000E+00  0.60000E+00  0.00000E+00
  0.00000E+00  0.50000E+00  0.00000E+00
  0.00000E+00  0.40000E+00  0.00000E+00
  0.00000E+00  0.30000E+00  0.00000E+00
  0.00000E+00  0.20000E+00  0.00000E+00
  0.00000E+00  0.10000E+00  0.00000E+00
  0.11989E+01  0.99198E+00  0.00000E+00
  0.11761E+01  0.10006E+01  0.00000E+00
  0.11533E+01  0.10093E+01  0.00000E+00
  0.11306E+01  0.10179E+01  0.00000E+00
  0.11078E+01  0.10265E+01  0.00000E+00
  0.10850E+01  0.10352E+01  0.00000E+00
  0.10622E+01  0.10438E+01  0.00000E+00
  0.10394E+01  0.10525E+01  0.00000E+00
  0.10167E+01  0.10611E+01  0.00000E+00
  0.99389E+00  0.10697E+01  0.00000E+00
  0.97111E+00  0.10784E+01  0.00000E+00
  0.94833E+00  0.10870E+01  0.00000E+00
  0.92556E+00  0.10957E+01  0.00000E+00
  0.90278E+00  0.11043E+01  0.00000E+00
  0.88000E+00  0.11130E+01  0.00000E+00
  0.85722E+00  0.11216E+01  0.00000E+00
  0.83444E+00  0.11302E+01  0.00000E+00
  0.83444E+00  0.11475E+01  0.00000E+00
  0.85722E+00  0.11562E+01  0.00000E+00
  0.88000E+00  0.11648E+01  0.00000E+00
  0.90278E+00  0.11735E+01  0.00000E+00
  0.92556E+00  0.11821E+01  0.00000E+00
  0.94833E+00  0.11907E+01  0.00000E+00
  0.97111E+00  0.11994E+01  0.00000E+00
  0.99389E+00  0.12080E+01  0.00000E+00
  0.10167E+01  0.12167E+01  0.00000E+00
  0.10394E+01  0.12253E+01  0.00000E+00
  0.10622E+01  0.12340E+01  0.00000E+00
  0.10850E+01  0.12426E+01  0.00000E+00
  0.11078E+01  0.12512E+01  0.00000E+00
  0.11306E+01  0.12599E+01  0.00000E+00
  0.11533E+01  0.12685E+01  0.00000E+00
  0.11761E+01  0.12772E+01  0.00000E+00
  0.11989E+01  0.12858E+01  0.00000E+00
  0.12217E+01  0.12705E+01  0.00000E+00
  0.12217E+01  0.12466E+01  0.00000E+00
  0.12217E+01  0.12227E+01  0.00000E+00
  0.12217E+01  0.11987E+01  0.00000E+00
  0.12217E+01  0.11748E+01  0.00000E+00
  0.12217E+01  0.11508E+01  0.00000E+00
  0.12217E+01  0.11269E+01  0.00000E+00
  0.12217E+01  0.11030E+01  0.00000E+00
  0.12217E+01  0.10791E+01  0.00000E+00
  0.12217E+01  0.10551E+01  0.00000E+00
  0.12217E+01  0.10312E+01  0.00000E+00
  0.12217E+01  0.10073E+01  0.00000E+00
  0.12429E+01  0.10188E+01  0.00000E+00
  0.12399E+01  0.11882E+01  0.00000E+00
  0.21377E+01  0.78680E-01  0.00000E+00
  0.21538E+01  0.19174E+01  0.00000E+00
  0.83774E+00  0.11061E+01  0.00000E+00
  0.97541E+00  0.10554E+01  0.00000E+00
  0.11166E+01  0.10045E+01  0.00000E+00
  0.29463E+01  0.19156E+01  0.00000E+00
  0.26515E+01  0.81480E-01  0.00000E+00
  0.25477E+01  0.19110E+01  0.00000E+00
  0.30502E+01  0.68680E-01  0.00000E+00
  0.83912E+00  0.11750E+01  0.00000E+00
  0.95224E+00  0.12148E+01  0.00000E+00
  0.10661E+01  0.12580E+01  0.00000E+00
  0.11804E+01  0.13002E+01  0.00000E+00
  0.39119E+01  0.10505E+01  0.00000E+00
  0.17555E+01  0.84130E-01  0.00000E+00
  0.64649E+00  0.99150E-01  0.00000E+00
  0.17446E+01  0.19250E+01  0.00000E+00
  0.86600E-01  0.65000E+00  0.00000E+00
  0.14551E+01  0.78430E-01  0.00000E+00
  0.96058E+00  0.81690E-01  0.00000E+00
  0.33501E+01  0.19134E+01  0.00000E+00
  0.39162E+01  0.63967E+00  0.00000E+00
  0.82470E-01  0.14561E+01  0.00000E+00
  0.55009E+00  0.19215E+01  0.00000E+00
  0.85020E-01  0.95314E+00  0.00000E+00
  0.39167E+01  0.13623E+01  0.00000E+00
  0.33616E+01  0.95540E-01  0.00000E+00
  0.90682E+00  0.10774E+01  0.00000E+00
  0.10433E+01  0.10284E+01  0.00000E+00
  0.11799E+01  0.97718E+00  0.00000E+00
  0.12429E+01  0.10931E+01  0.00000E+00
  0.12436E+01  0.12583E+01  0.00000E+00
  0.85035E+00  0.19198E+01  0.00000E+00
  0.14457E+01  0.19288E+01  0.00000E+00
  0.11516E+01  0.19130E+01  0.00000E+00
  0.36450E+01  0.85340E-01  0.00000E+00
  0.84610E-01  0.34945E+00  0.00000E+00
  0.36500E+01  0.19134E+01  0.00000E+00
  0.35776E+00  0.89100E-01  0.00000E+00
  0.39086E+01  0.16476E+01  0.00000E+00
  0.39134E+01  0.35000E+00  0.00000E+00
  0.83900E-01  0.11460E+01  0.00000E+00
  0.35715E+00  0.19076E+01  0.00000E+00
  0.83410E-01  0.16549E+01  0.00000E+00
  0.12495E+01  0.81910E-01  0.00000E+00
  0.19505E+01  0.76550E-01  0.00000E+00
  0.23503E+01  0.82860E-01  0.00000E+00
  0.19504E+01  0.19252E+01  0.00000E+00
  0.23461E+01  0.19181E+01  0.00000E+00
  0.28427E+01  0.83720E-01  0.00000E+00
  0.31542E+01  0.19172E+01  0.00000E+00
  0.27508E+01  0.19148E+01  0.00000E+00
  0.39150E+01  0.84994E+00  0.00000E+00
  0.88020E+00  0.11939E+01  0.00000E+00
  0.99745E+00  0.12340E+01  0.00000E+00
  0.12424E+01  0.11389E+01  0.00000E+00
  0.11119E+01  0.12747E+01  0.00000E+00
  0.78910E-01  0.18478E+01  0.00000E+00
  0.38489E+01  0.73890E-01  0.00000E+00
  0.86600E-01  0.15000E+00  0.00000E+00
  0.38461E+01  0.19156E+01  0.00000E+00
  0.83750E-01  0.10487E+01  0.00000E+00
  0.16314E+00  0.10008E+01  0.00000E+00
  0.16591E+00  0.91287E+00  0.00000E+00
  0.23730E+00  0.95594E+00  0.00000E+00
  0.24013E+00  0.87512E+00  0.00000E+00
  0.30661E+00  0.91623E+00  0.00000E+00
  0.30296E+00  0.99591E+00  0.00000E+00
  0.30938E+00  0.83944E+00  0.00000E+00
  0.37444E+00  0.87856E+00  0.00000E+00
  0.37563E+00  0.80503E+00  0.00000E+00
  0.43612E+00  0.84332E+00  0.00000E+00
  0.43924E+00  0.77347E+00  0.00000E+00
  0.49710E+00  0.80859E+00  0.00000E+00
  0.50063E+00  0.74182E+00  0.00000E+00
  0.55658E+00  0.77549E+00  0.00000E+00
[...]
 POINT_DATA         1810
  
 SCALARS WL      float 1
 LOOKUP_TABLE default
  0.13779E-01
  0.12067E-02
  0.90990E-03
  0.14619E-01
 -0.16337E-01
  0.26937E-01
 -0.34920E-01
  0.13969E-01
  0.14221E-01
  0.14284E-01
  0.14057E-01
  0.13525E-01
  0.12670E-01
  0.11524E-01
  0.10117E-01
  0.86351E-02
  0.71698E-02
  0.58306E-02
  0.46336E-02
  0.37737E-02
  0.32803E-02
  0.32705E-02
  0.37375E-02
  0.45249E-02
  0.55220E-02
  0.65817E-02
  0.74374E-02
  0.79190E-02
  0.79968E-02
  0.76385E-02
  0.70423E-02
  0.62884E-02
  0.56260E-02
  0.51758E-02
  0.49625E-02
  0.50031E-02
  0.54494E-02
  0.59904E-02
  0.68975E-02
  0.77297E-02
  0.83725E-02
  0.85670E-02
  0.80719E-02
  0.67375E-02
  0.47878E-02
  0.25795E-02
  0.00000E+00
  0.00000E+00
  0.00000E+00
  0.00000E+00
  0.00000E+00
  0.00000E+00
  0.00000E+00
  0.00000E+00
  0.00000E+00
  0.00000E+00
  0.00000E+00
  0.00000E+00
  0.00000E+00
  0.00000E+00
  0.00000E+00
  0.00000E+00
  0.00000E+00
  0.00000E+00
  0.00000E+00
  0.10192E-02
  0.11743E-02
  0.13276E-02
  0.14776E-02
  0.17458E-02
  0.21935E-02
  0.29740E-02
  0.39908E-02
  0.50966E-02
  0.63724E-02
  0.73788E-02
  0.80633E-02
  0.81721E-02
  0.79226E-02
  0.72210E-02
  0.63934E-02
  0.56878E-02
  0.50016E-02
  0.43318E-02
  0.38977E-02
  0.37713E-02
  0.38586E-02
  0.41459E-02
  0.46136E-02
  0.52086E-02
  0.60255E-02
  0.71186E-02
  0.81937E-02
  0.93175E-02
  0.10275E-01
  0.11071E-01
  0.11728E-01
  0.12244E-01
  0.12670E-01
  0.13043E-01
  0.13403E-01
  0.13731E-01
  0.14065E-01
  0.14405E-01
  0.14673E-01
  0.14737E-01
  0.14830E-01
  0.14940E-01
  0.15061E-01
  0.15159E-01
  0.15226E-01
  0.15239E-01
  0.15192E-01
  0.15089E-01
  0.14940E-01
  0.14759E-01
  0.14556E-01
  0.14359E-01
  0.14180E-01
  0.14033E-01
  0.13910E-01
  0.13822E-01
  0.13768E-01
 -0.76613E-02
 -0.40882E-02
 -0.10637E-02
  0.78897E-03
  0.39060E-02
  0.61655E-02
  0.66393E-02
  0.83979E-02
  0.99199E-02
  0.11339E-01
  0.12359E-01
  0.13953E-01
  0.15137E-01
  0.17180E-01
  0.18540E-01
  0.20360E-01
  0.23334E-01
  0.26602E-01
  0.23376E-01
  0.22063E-01
  0.19820E-01
  0.18826E-01
  0.16675E-01
  0.15671E-01
  0.13915E-01
  0.12494E-01
  0.10969E-01
  0.91391E-02
  0.71771E-02
  0.50917E-02
  0.24321E-02
 -0.12679E-02
 -0.57349E-02
 -0.12648E-01
 -0.46701E-01
 -0.43735E-01
 -0.38758E-01
 -0.34638E-01
 -0.31199E-01
 -0.29801E-01
 -0.30050E-01
 -0.30100E-01
 -0.28985E-01
 -0.26463E-01
 -0.23538E-01
 -0.21343E-01
 -0.22146E-01
 -0.33543E-01
  0.79559E-02
  0.47520E-02
  0.21244E-01
  0.11894E-01
  0.19366E-02
  0.67792E-02
  0.53623E-02
  0.76078E-02
  0.57120E-02
  0.23825E-01
  0.16213E-01
  0.81963E-02
 -0.80623E-02
 -0.60726E-04
  0.50590E-02
  0.12148E-01
  0.39596E-02
  0.14505E-01
  0.31979E-02
  0.77973E-02
  0.25922E-02
  0.24585E-02
  0.14977E-01
  0.12918E-01
  0.14985E-01
 -0.45777E-02
  0.81158E-02
  0.15953E-01
  0.75079E-02
 -0.53302E-02
 -0.30566E-01
 -0.46598E-01
  0.11505E-01
  0.55159E-02
  0.85870E-02
  0.74881E-02
  0.14094E-01
  0.14790E-02
  0.14180E-01
 -0.44855E-03
  0.17846E-02
  0.15145E-01
  0.13584E-01
  0.14720E-01
  0.41288E-02
  0.70527E-02
  0.73194E-02
  0.38325E-02
  0.61446E-02
  0.49950E-02
  0.45115E-02
  0.81041E-02
  0.19661E-02
  0.20697E-01
  0.13127E-01
 -0.30832E-01
  0.40722E-02
  0.14547E-01
  0.36420E-02
  0.13965E-01
  0.10401E-02
  0.15089E-01
  0.14985E-01
  0.14889E-01
  0.14919E-01
  0.14809E-01
  0.14865E-01
  0.14997E-01
  0.14720E-01
  0.14803E-01
  0.14600E-01
  0.14691E-01
  0.14433E-01
  0.14495E-01
  0.14176E-01
  0.14194E-01
  0.13806E-01
  0.13737E-01
  0.13320E-01
  0.13119E-01
  0.14880E-01
  0.12729E-01
  0.12371E-01
  0.12898E-01
  0.11968E-01
  0.11481E-01
  0.10883E-01
  0.10476E-01
  0.97244E-02
  0.93950E-02
  0.84948E-02
  0.88079E-02
  0.74447E-02
  0.72583E-02
  0.60668E-02
  0.60640E-02
  0.48230E-02
  0.13475E-01
  0.12623E-01
  0.49601E-02
  0.36586E-02
  0.32742E-02
  0.21364E-02
  0.27273E-02
  0.13766E-02
  0.47470E-03
 -0.64670E-04
 -0.12828E-02
 -0.15255E-02
 -0.23353E-03
 -0.13533E-02
 -0.30606E-02
 -0.24446E-02
 -0.47073E-02
 -0.33834E-02
 -0.62460E-02
 -0.39025E-02
 -0.75507E-02
 -0.40084E-02
 -0.81414E-02
 -0.32772E-02
 -0.77337E-02
 -0.20378E-02
 -0.66873E-02
 -0.11827E-02
 -0.56039E-02
 -0.90862E-03
 -0.60855E-02
 -0.25708E-02
  0.23121E-02
 -0.11715E-03
 -0.65254E-02
 -0.43519E-02
  0.19304E-02
 -0.19721E-02
 -0.11218E-01
  0.35269E-02
 -0.67213E-03
 -0.86963E-03
  0.38179E-02
 -0.12658E-02
 -0.52061E-02
 -0.70286E-02
 -0.87529E-02
 -0.11745E-01
 -0.10284E-01
 -0.14467E-01
 -0.11349E-01
 -0.12713E-01
 -0.14289E-01
 -0.10503E-01
 -0.67318E-02
 -0.49130E-02
 -0.11459E-02
 -0.10070E-02
 -0.38707E-02
 -0.16771E-02
  0.12206E-02
 -0.26967E-03
 -0.93576E-03
  0.27174E-02
  0.94103E-03
 -0.26735E-02
 -0.14465E-02
  0.19313E-02
 -0.43156E-03
 -0.12211E-01
  0.22183E-02
 -0.37632E-02
 -0.28902E-02
  0.72297E-02
 -0.47708E-02
 -0.45033E-02
 -0.41609E-02
 -0.56952E-02
  0.69068E-02
  0.87779E-02
  0.81184E-02
 -0.45247E-02
 -0.58966E-02
 -0.15159E-01
  0.77427E-02
 -0.22480E-02
  0.87295E-02
  0.83107E-02
  0.10175E-01
  0.60824E-02
 -0.30875E-02
 -0.42568E-03
 -0.77967E-02
  0.82891E-02
  0.81748E-02
 -0.13254E-02
  0.13049E-02
  0.17071E-02
  0.77711E-02
  0.81997E-02
  0.76328E-02
  0.70389E-02
  0.78419E-02
  0.72344E-02
  0.67334E-02
  0.59490E-02
  0.43714E-03
 -0.26700E-02
  0.23459E-02
  0.14255E-01
  0.14430E-01
  0.74815E-02
  0.68600E-02
 -0.64386E-03
  0.20571E-02
  0.71135E-02
  0.65270E-02
  0.78977E-02
  0.66972E-02
  0.62370E-02
 -0.10917E-01
 -0.42188E-02
  0.41577E-02
  0.40258E-02
  0.53438E-02
  0.51959E-02
  0.59189E-02
  0.58968E-02
  0.48964E-02
  0.58900E-02
  0.46660E-02
  0.60864E-02
  0.48293E-02
  0.61348E-02
  0.65109E-02
  0.53721E-02
  0.25077E-02
  0.60919E-02
  0.69634E-02
  0.58874E-02
  0.35175E-02
 -0.11857E-01
 -0.80226E-02
 -0.70064E-02
 -0.35013E-02
 -0.18208E-02
  0.82458E-03
  0.22071E-02
  0.40533E-02
  0.28988E-02
 -0.17959E-04
  0.30146E-02
  0.67295E-03
  0.28082E-02
  0.36604E-03
  0.21698E-02
 -0.92789E-03
  0.13763E-02
 -0.20968E-02
  0.84912E-03
 -0.23674E-02
 -0.76316E-02
 -0.69310E-02
 -0.11639E-02
 -0.34042E-02
  0.10947E-02
  0.10016E-02
 -0.34944E-02
  0.30245E-02
  0.39114E-02
  0.54604E-02
  0.68520E-02
  0.68291E-02
  0.91922E-02
  0.47000E-02
  0.41076E-02
  0.26296E-02
  0.50114E-03
  0.67269E-03
 -0.20611E-02
 -0.20189E-03
 -0.26193E-02
  0.27020E-03
 -0.58406E-03
  0.19113E-02
  0.19747E-02
  0.40614E-02
  0.47279E-02
  0.62191E-02
  0.72073E-02
  0.10454E-02
  0.24322E-02
  0.23958E-02
  0.81552E-02
  0.92468E-02
  0.86706E-02
  0.10507E-01
  0.10187E-01
  0.11816E-01
  0.11827E-01
  0.13032E-01
  0.12760E-01
  0.13773E-01
  0.14390E-01
  0.14748E-01
  0.14133E-01
  0.14887E-01
  0.15633E-01
  0.15530E-01
  0.16375E-01
  0.16012E-01
  0.15278E-01
  0.15596E-01
  0.16302E-01
  0.15771E-01
  0.16386E-01
  0.14989E-01
  0.15793E-01
  0.16278E-01
  0.15696E-01
  0.15341E-01
  0.17086E-01
  0.16550E-01
  0.81375E-02
  0.98795E-02
 -0.13928E-01
  0.16043E-01
  0.16865E-01
  0.15561E-01
  0.16329E-01
  0.17066E-01
  0.65653E-02
  0.49906E-02
 -0.95290E-03
 -0.84776E-02
 -0.31409E-02
 -0.19376E-01
 -0.14757E-01
 -0.31669E-01
  0.54804E-02
  0.42738E-02
 -0.36173E-01
 -0.46233E-01
 -0.41631E-01
 -0.51499E-01
 -0.54267E-01
 -0.54948E-01
 -0.13904E-01
  0.60015E-02
 -0.13112E-01
  0.97579E-02
  0.40760E-02
  0.58867E-02
  0.50510E-02
 -0.13784E-01
  0.14262E-01
  0.13597E-01
  0.13735E-01
  0.50864E-02
  0.61440E-02
  0.51864E-02
  0.11923E-02
  0.24425E-02
  0.30828E-02
 -0.54770E-02
  0.62136E-02
  0.59609E-02
  0.18955E-02
  0.30462E-02
  0.68644E-02
  0.65804E-02
 -0.55382E-01
 -0.53116E-01
 -0.51182E-01
 -0.47361E-01
 -0.17296E-02
  0.19385E-02
  0.76440E-02
  0.97663E-02
 -0.14390E-02
  0.27793E-02
  0.16451E-01
  0.17132E-01
  0.17936E-01
  0.17943E-01
  0.17002E-01
  0.17766E-01
  0.52546E-02
 -0.16549E-02
 -0.46743E-01
 -0.38546E-01
  0.56724E-02
  0.88436E-02
  0.49383E-02
  0.40840E-02
  0.42865E-02
  0.34012E-02
  0.36686E-02
  0.29399E-02
  0.64176E-02
  0.50776E-02
  0.20181E-02
  0.24919E-02
 -0.14151E-02
 -0.10105E-02
  0.30498E-02
  0.24608E-03
  0.71045E-02
  0.59147E-02
  0.43671E-02
  0.91531E-02
  0.80743E-02
  0.95453E-02
  0.84881E-02
  0.10061E-01
  0.68502E-02
  0.71747E-02
  0.54436E-02
  0.56518E-02
  0.37943E-02
  0.75588E-02
  0.16657E-01
  0.16995E-01
  0.18001E-01
  0.17073E-01
  0.27218E-02
  0.71666E-02
 -0.52459E-01
  0.39265E-02
  0.18259E-02
  0.19375E-02
 -0.26269E-03
  0.98139E-03
 -0.73436E-03
  0.59352E-02
  0.11616E-01
  0.71151E-02
  0.18983E-01
  0.26867E-02
  0.11839E-01
  0.13254E-01
  0.56697E-02
 -0.29883E-02
  0.16208E-01
  0.16044E-01
  0.16833E-01
  0.15596E-01
  0.16167E-01
  0.63014E-02
  0.14810E-01
  0.15140E-01
  0.13108E-01
  0.74969E-02
  0.72161E-02
  0.83529E-02
 -0.49661E-01
  0.10175E-01
 -0.27557E-02
  0.13296E-01
 -0.44379E-01
 -0.38004E-01
 -0.41544E-01
 -0.32904E-01
  0.32039E-02
  0.37593E-02
  0.15907E-01
  0.57120E-02
 -0.33642E-01
 -0.26213E-01
 -0.24901E-01
 -0.19536E-01
  0.66890E-02
  0.13525E-01
  0.14815E-01
  0.44285E-02
  0.43903E-02
  0.22695E-02
 -0.18464E-01
 -0.14275E-01
 -0.12970E-01
 -0.99930E-02
 -0.52949E-02
  0.15166E-01
  0.31629E-02
  0.38374E-02
  0.52686E-02
  0.19064E-02
  0.41169E-02
  0.16249E-01
  0.69614E-02
  0.58319E-02
 -0.13559E-02
  0.17995E-02
  0.59066E-02
 -0.42242E-01
 -0.38429E-01
 -0.73923E-02
 -0.16364E-01
 -0.79675E-02
  0.71611E-02
  0.37542E-02
  0.49787E-02
 -0.43606E-02
  0.73090E-02
  0.54633E-02
  0.13749E-01
  0.13822E-01
  0.13619E-01
  0.12448E-01
  0.12355E-01
  0.25670E-02
  0.20163E-02
  0.77190E-02
  0.43177E-02
  0.44011E-02
  0.34878E-02
  0.53212E-02
  0.14324E-03
  0.18749E-01
  0.20063E-01
 -0.23438E-01
  0.23802E-02
  0.23198E-02
  0.27396E-02
  0.58775E-02
 -0.19375E-01
 -0.18440E-01
  0.19439E-01
  0.20879E-01
  0.19771E-01
  0.20993E-01
  0.37100E-02
  0.13770E-01
  0.13426E-01
  0.13815E-01
  0.13515E-01
  0.13855E-01
 -0.10787E-01
  0.82327E-02
  0.93897E-02
  0.41119E-02
  0.37049E-02
 -0.39883E-01
  0.16954E-01
  0.15909E-01
  0.92195E-02
  0.10284E-01
  0.10470E-01
  0.11249E-01
  0.11401E-01
  0.12094E-01
  0.12227E-01
  0.12808E-01
  0.12725E-01
  0.13330E-01
  0.13392E-01
  0.13779E-01
  0.13826E-01
  0.14087E-01
  0.14072E-01
  0.13305E-01
  0.54047E-02
  0.15204E-01
  0.16380E-01
  0.15764E-01
  0.17126E-01
  0.17891E-01
  0.19579E-01
 -0.92500E-03
  0.12055E-01
  0.53217E-02
  0.12995E-01
  0.14140E-01
  0.14283E-01
  0.14344E-01
  0.60026E-02
  0.42331E-02
  0.16507E-02
  0.10863E-01
  0.13663E-01
  0.57246E-02
  0.14667E-01
  0.66762E-02
  0.62590E-02
  0.59119E-02
 -0.13415E-02
  0.93913E-02
 -0.13516E-02
 -0.31232E-02
 -0.47044E-01
 -0.40349E-01
 -0.42042E-01
  0.20217E-01
 -0.43606E-01
 -0.83405E-02
  0.54099E-02
 -0.21412E-01
 -0.85752E-02
 -0.48959E-02
 -0.81447E-02
 -0.69948E-02
  0.10169E-01
  0.65668E-02
  0.10482E-01
  0.11263E-01
  0.24336E-02
  0.27863E-02
  0.18817E-02
 -0.16188E-01
 -0.57897E-02
 -0.19881E-01
 -0.13980E-01
 -0.28226E-01
 -0.21491E-01
  0.13631E-01
  0.13919E-01
  0.14137E-01
  0.14181E-01
  0.14396E-01
  0.14038E-01
  0.14425E-01
  0.14601E-01
  0.14388E-01
  0.47058E-02
  0.54665E-02
  0.58871E-02
  0.27322E-02
  0.12098E-01
  0.10858E-01
  0.10473E-01
  0.92968E-02
  0.37650E-02
  0.40512E-02
  0.40602E-02
  0.34520E-02
  0.13504E-01
  0.13320E-01
  0.82979E-02
  0.20289E-01
 -0.39940E-01
 -0.40637E-01
  0.21703E-02
 -0.38284E-03
  0.44526E-02
 -0.85487E-02
  0.47775E-02
  0.41844E-02
 -0.36797E-01
  0.91171E-02
  0.45258E-02
  0.39070E-02
  0.43035E-02
  0.41637E-02
  0.38571E-02
  0.37528E-02
  0.43718E-02
  0.38774E-02
  0.48962E-02
  0.31917E-02
  0.42715E-02
  0.24328E-02
 -0.25451E-01
 -0.21943E-01
 -0.17532E-01
  0.49078E-02
  0.57444E-02
 -0.33824E-01
 -0.23378E-01
 -0.11025E-01
  0.18386E-01
  0.18864E-01
  0.18379E-01
  0.75675E-02
  0.73154E-02
 -0.27999E-02
 -0.41868E-02
 -0.43175E-02
  0.35527E-02
  0.70675E-02
  0.29404E-02
 -0.48640E-02
 -0.18638E-02
  0.48493E-03
 -0.37639E-02
 -0.44365E-02
 -0.59583E-02
 -0.63305E-02
 -0.30716E-02
 -0.46461E-02
 -0.80694E-02
 -0.86373E-03
 -0.52982E-02
 -0.76780E-02
 -0.94118E-02
 -0.75456E-02
  0.13074E-01
  0.11605E-01
  0.45555E-02
  0.57746E-02
  0.23142E-03
 -0.20052E-02
 -0.39886E-03
  0.15869E-02
  0.52396E-02
  0.15881E-01
  0.15526E-01
  0.15435E-01
  0.72483E-02
 -0.17738E-01
 -0.17780E-01
  0.20344E-02
 -0.63761E-02
  0.63254E-02
  0.62688E-02
  0.43645E-03
 -0.26030E-02
  0.19639E-02
  0.14523E-02
  0.57380E-02
  0.14467E-01
 -0.10970E-01
 -0.60075E-02
 -0.53484E-02
 -0.41491E-02
  0.98347E-02
  0.12890E-01
  0.12584E-01
  0.95774E-02
 -0.15490E-01
  0.22728E-01
  0.86353E-02
  0.12377E-01
  0.58754E-02
  0.65606E-02
  0.71377E-02
  0.71447E-02
  0.13930E-01
  0.30122E-02
  0.30229E-02
 -0.11189E-03
  0.59396E-02
 -0.62810E-04
  0.12627E-01
  0.13292E-01
  0.13783E-01
 -0.43051E-01
 -0.46705E-02
 -0.11207E-01
  0.57324E-02
  0.78571E-02
  0.74176E-02
  0.15503E-01
  0.15457E-01
  0.21484E-02
  0.42361E-02
 -0.39950E-01
  0.57695E-02
  0.62417E-02
  0.55484E-02
  0.14333E-01
  0.99398E-02
  0.71480E-02
  0.13301E-01
  0.14939E-01
  0.15590E-01
 -0.14252E-01
 -0.76824E-03
  0.58673E-02
  0.16340E-01
 -0.36031E-01
 -0.32535E-01
 -0.36825E-01
  0.75239E-02
  0.75785E-02
  0.15235E-01
 -0.46093E-02
 -0.52683E-02
  0.57839E-02
  0.62760E-02
  0.63066E-02
  0.68745E-02
 -0.16805E-01
 -0.13462E-01
  0.24178E-02
  0.16887E-02
  0.77202E-02
  0.88481E-02
  0.10120E-01
  0.37824E-02
  0.37101E-02
  0.15131E-01
  0.14637E-01
  0.14765E-01
  0.14813E-01
  0.14911E-01
  0.14909E-01
  0.14982E-01
  0.15052E-01
  0.15051E-01
  0.51225E-02
  0.31727E-02
 -0.36130E-02
  0.62766E-02
  0.70656E-02
  0.75567E-02
  0.11127E-01
  0.31702E-02
  0.26063E-02
  0.69148E-02
  0.14469E-01
  0.10294E-02
 -0.98103E-02
  0.11812E-01
 -0.33866E-02
 -0.25799E-01
 -0.54213E-02
  0.42264E-02
  0.39899E-02
  0.15272E-01
  0.15014E-01
 -0.30004E-01
 -0.51668E-02
 -0.59615E-02
  0.31738E-02
  0.67583E-02
  0.14685E-01
 -0.30397E-01
 -0.18737E-01
 -0.18613E-01
 -0.11468E-01
 -0.11038E-01
 -0.31446E-02
 -0.40930E-01
 -0.37140E-01
  0.14663E-01
  0.14497E-01
  0.14440E-02
  0.10565E-02
  0.12320E-01
  0.56186E-03
  0.35549E-02
  0.14346E-01
  0.14559E-01
  0.29114E-02
  0.15234E-01
  0.33811E-03
  0.53950E-02
  0.11445E-01
  0.10666E-01
  0.38211E-02
  0.53287E-02
  0.16390E-02
  0.12831E-02
  0.25228E-02
  0.27664E-02
  0.12513E-02
 -0.35820E-01
  0.43736E-02
  0.59696E-02
  0.15400E-01
 -0.22350E-01
  0.53681E-02
  0.68113E-02
  0.64213E-02
  0.49866E-02
  0.14440E-01
  0.78042E-02
  0.77032E-02
  0.77694E-02
  0.74905E-02
  0.13038E-01
 -0.58996E-02
  0.11774E-01
  0.40672E-02
 -0.44263E-01
  0.14956E-01
  0.13314E-01
  0.15096E-01
  0.30876E-02
  0.32782E-02
  0.25457E-02
  0.35666E-02
  0.39918E-02
  0.41488E-02
  0.46612E-02
  0.44198E-02
  0.50368E-02
  0.53225E-02
  0.14147E-01
  0.19155E-01
  0.20758E-01
  0.17772E-01
  0.60307E-02
  0.77194E-02
  0.91439E-02
  0.10132E-01
  0.11281E-01
 -0.59442E-02
 -0.18334E-02
 -0.46718E-01
 -0.13560E-01
 -0.56945E-02
 -0.42952E-01
  0.13482E-01
  0.45595E-02
  0.38495E-02
  0.56911E-02
 -0.69918E-02
  0.58348E-02
  0.22462E-01
 -0.32053E-01
  0.14574E-01
 -0.33255E-02
  0.21765E-01
  0.22032E-01
  0.19848E-01
  0.20532E-01
  0.22302E-01
  0.20516E-01
  0.19108E-01
 -0.31710E-02
  0.88647E-02
  0.80823E-02
  0.71120E-02
  0.13824E-01
  0.35670E-02
  0.58609E-02
  0.81209E-02
 -0.66961E-03
 -0.41388E-02
  0.88791E-02
 -0.74762E-02
 -0.22152E-02
 -0.28107E-01
 -0.23450E-01
 -0.18837E-01
 -0.30585E-01
 -0.16537E-01
  0.50691E-02
  0.13752E-01
  0.12373E-01
  0.15716E-01
  0.16952E-01
  0.18620E-01
  0.17438E-01
 -0.20556E-01
  0.29481E-02
  0.11697E-01
  0.59625E-02
  0.26670E-02
  0.13934E-01
  0.22392E-01
  0.81672E-02
  0.62016E-02
  0.14702E-01
  0.14352E-01
  0.14851E-01
  0.14682E-01
 -0.28545E-01
  0.66824E-02
  0.27711E-02
 -0.38734E-01
 -0.42656E-01
  0.15042E-01
  0.15015E-01
  0.14963E-01
  0.13233E-01
 -0.38682E-02
 -0.56687E-03
  0.24218E-01
  0.25216E-01
 -0.19348E-02
  0.17033E-01
  0.13330E-01
 -0.13443E-01
  0.18727E-02
  0.88370E-03
  0.37845E-02
  0.39360E-02
  0.34322E-02
  0.14889E-02
  0.58302E-02
  0.55420E-02
  0.35695E-02
  0.46348E-02
  0.66251E-02
  0.15189E-01
  0.16705E-01
  0.18223E-01
  0.18121E-01
 -0.54211E-02
 -0.85948E-02
 -0.11860E-01
  0.21201E-02
  0.46163E-02
  0.38567E-02
  0.56153E-02
  0.15248E-01
  0.30211E-02
 -0.18095E-01
 -0.10367E-01
 -0.14428E-01
 -0.24225E-01
 -0.26427E-01
  0.13716E-01
  0.14135E-01
  0.14290E-01
  0.14270E-01
  0.14232E-01
  0.14286E-01
  0.16843E-01
  0.55537E-03
  0.22802E-02
  0.14672E-01
  0.14876E-01
  0.89752E-02
  0.24997E-02
  0.40038E-02
  0.15001E-01
  0.10083E-01
  0.11409E-01
 -0.55114E-02
  0.29233E-02
 -0.10442E-01
 -0.83678E-02
  0.15047E-01
 -0.43190E-03
  0.20007E-02
  0.34187E-02
  0.37960E-02
  0.39280E-02
 -0.76875E-02
  0.29995E-02
  0.14235E-01
  0.14065E-01
  0.81493E-03
  0.83737E-02
  0.17640E-01
 -0.28109E-02
  0.19000E-01
  0.20506E-01
 -0.16389E-01
  0.13259E-01
  0.13798E-01
  0.13908E-01
  0.14100E-01
  0.63633E-02
  0.14810E-01
  0.41587E-02
  0.13503E-01
  0.14222E-01
  0.14016E-01
 -0.12630E-01
 -0.42885E-01
  0.15226E-02
  0.12491E-02
  0.18750E-02
  0.60720E-02
  0.66090E-02
  0.31108E-02
  0.98066E-02
  0.10679E-01
  0.17746E-01
  0.53029E-02
  0.51073E-02
  0.12054E-01
  0.11962E-01
  0.12492E-01
  0.12526E-01
  0.12931E-01
  0.59774E-02
  0.53753E-02
  0.49973E-02
  0.56467E-02
  0.58600E-02
  0.34259E-02
  0.53946E-02
 -0.27949E-02
 -0.46027E-02
  0.51561E-02
  0.45158E-02
  0.57936E-02
  0.64614E-02
  0.71568E-02
  0.13642E-02
  0.10928E-01
  0.96846E-02
  0.12919E-01
  0.13085E-01
  0.19767E-01
 -0.88774E-02
  0.62123E-02
  0.43310E-02
  0.15072E-01
  0.12965E-02
  0.66043E-02
  0.60323E-02
  0.73771E-02
  0.82920E-02
  0.80742E-02
  0.84145E-02
  0.81820E-02
  0.77523E-02
 -0.51511E-01
 -0.31427E-02
  0.37134E-02
  0.14620E-01
  0.14390E-01
  0.15057E-01
  0.78303E-02
  0.81220E-02
  0.58805E-02
  0.15044E-01
  0.14323E-01
  0.66637E-02
  0.68839E-02
  0.59214E-02
 -0.83871E-02
 -0.82551E-02
 -0.15070E-02
  0.11190E-02
  0.18825E-01
 -0.81946E-02
 -0.35562E-02
 -0.38295E-02
 -0.60760E-02
 -0.47104E-02
  0.30381E-02
  0.59024E-02
  0.49881E-03
 -0.20324E-02
 -0.20237E-02
  0.76968E-02
  0.75604E-02
  0.70774E-02
  0.60617E-02
  0.14176E-01
 -0.38439E-02
  0.58742E-02
  0.17745E-01
 -0.14111E-02
  0.61575E-02
  0.12519E-02
  0.11794E-02
  0.10308E-02
  0.80470E-03
  0.60258E-03
  0.52320E-02
  0.73709E-02
  0.63895E-02
  0.19840E-02
  0.25833E-02
  0.32548E-02
  0.35084E-02
  0.56387E-02
  0.24610E-02
  0.19508E-02
 -0.12774E-01
  0.47690E-02
  0.42146E-02
  0.10699E-01
  0.45845E-02
  0.36658E-02
  0.21729E-02
  0.34994E-02
 -0.57772E-02
 -0.76824E-02
 -0.17037E-02
  0.23639E-02
 -0.21212E-02
 -0.67596E-02
  0.16593E-02
  0.71188E-02
 -0.33130E-02
 -0.38302E-02
  0.18604E-02
  0.28036E-02
 -0.10572E-02
  0.10405E-01
 -0.49611E-02
  0.29255E-02
 -0.93686E-02
 -0.84211E-02
 -0.53457E-02
  0.51989E-02
  0.67314E-02
 -0.13580E-01
 -0.44151E-02
  0.45655E-02
 -0.41152E-02
 -0.21156E-02
 -0.24152E-01
  0.78811E-02
  0.57421E-02
  0.12208E-01
  0.36997E-02
  0.58123E-02
 -0.36015E-02
  0.34556E-02
  0.60669E-02
  0.68196E-02
 -0.34999E-02
  0.55509E-02
  0.59924E-02
  0.65274E-02
  0.11178E-02
 -0.30607E-01
 -0.18419E-01
  0.62219E-02
 -0.13591E-01
  0.59284E-02
  0.75892E-02
 -0.16293E-01
  0.18970E-02
 -0.73864E-02
 -0.92807E-02
  0.59808E-02
  0.75253E-03
  0.14261E-01
 -0.74635E-02
 -0.32270E-01
  0.11156E-01
 -0.59521E-03
  0.46867E-02
  0.72847E-02
  0.82605E-02
 -0.53826E-03
  0.46903E-02
  0.14832E-01
 -0.21220E-02
  0.19115E-01
  0.71898E-02
  0.23896E-01
  0.19232E-01
  0.77475E-02
  0.17763E-01
 -0.46872E-01
 -0.41874E-01
  0.10697E-01
  0.13265E-01
  0.90977E-02
  0.17307E-01
  0.26024E-02
  0.50629E-02
 -0.19084E-01
 -0.25591E-01
 -0.76105E-02
  0.13317E-01
 -0.18062E-01
 -0.28679E-01
 -0.82589E-02
 -0.28610E-03
  0.61142E-02
 -0.31085E-01
 -0.33506E-01