# vtk DataFile Version 2.0
Unstructured Grid UFVM-ECOMOD
ASCII
DATASET UNSTRUCTURED_GRID
 POINTS         1724  float
  0.00000E+00  0.00000E+00  0.00000E+00
  0.40000E+01  0.00000E+00  0.00000E+00
  0.40000E+01  0.20000E+01  0.00000E+00
  0.00000E+00  0.20000E+01  0.00000E+00
  0.15750E+01  0.10287E+01  0.00000E+00
  0.15677E+01  0.97091E+00  0.00000E+00
  0.15461E+01  0.91674E+00  0.00000E+00
  0.15118E+01  0.86961E+00  0.00000E+00
  0.14667E+01  0.83248E+00  0.00000E+00
  0.14138E+01  0.80767E+00  0.00000E+00
  0.13563E+01  0.79675E+00  0.00000E+00
  0.12979E+01  0.80041E+00  0.00000E+00
  0.12423E+01  0.81842E+00  0.00000E+00
  0.11929E+01  0.84963E+00  0.00000E+00
  0.11529E+01  0.89210E+00  0.00000E+00
  0.11247E+01  0.94315E+00  0.00000E+00
  0.11102E+01  0.99958E+00  0.00000E+00
  0.11102E+01  0.10578E+01  0.00000E+00
  0.11247E+01  0.11143E+01  0.00000E+00
  0.11529E+01  0.11653E+01  0.00000E+00
  0.11929E+01  0.12078E+01  0.00000E+00
  0.12423E+01  0.12390E+01  0.00000E+00
  0.12979E+01  0.12570E+01  0.00000E+00
  0.13563E+01  0.12607E+01  0.00000E+00
  0.14138E+01  0.12497E+01  0.00000E+00
  0.14667E+01  0.12249E+01  0.00000E+00
  0.15118E+01  0.11878E+01  0.00000E+00
  0.15461E+01  0.11407E+01  0.00000E+00
  0.15677E+01  0.10865E+01  0.00000E+00
  0.10000E+00  0.00000E+00  0.00000E+00
  0.20000E+00  0.00000E+00  0.00000E+00
  0.30000E+00  0.00000E+00  0.00000E+00
  0.40000E+00  0.00000E+00  0.00000E+00
  0.50000E+00  0.00000E+00  0.00000E+00
  0.60000E+00  0.00000E+00  0.00000E+00
  0.70000E+00  0.00000E+00  0.00000E+00
  0.80000E+00  0.00000E+00  0.00000E+00
  0.90000E+00  0.00000E+00  0.00000E+00
  0.10000E+01  0.00000E+00  0.00000E+00
  0.11000E+01  0.00000E+00  0.00000E+00
  0.12000E+01  0.00000E+00  0.00000E+00
  0.13000E+01  0.00000E+00  0.00000E+00
  0.14000E+01  0.00000E+00  0.00000E+00
  0.15000E+01  0.00000E+00  0.00000E+00
  0.16000E+01  0.00000E+00  0.00000E+00
  0.17000E+01  0.00000E+00  0.00000E+00
  0.18000E+01  0.00000E+00  0.00000E+00
  0.19000E+01  0.00000E+00  0.00000E+00
  0.20000E+01  0.00000E+00  0.00000E+00
  0.21000E+01  0.00000E+00  0.00000E+00
  0.22000E+01  0.00000E+00  0.00000E+00
  0.23000E+01  0.00000E+00  0.00000E+00
  0.24000E+01  0.00000E+00  0.00000E+00
  0.25000E+01  0.00000E+00  0.00000E+00
  0.26000E+01  0.00000E+00  0.00000E+00
  0.27000E+01  0.00000E+00  0.00000E+00
  0.28000E+01  0.00000E+00  0.00000E+00
  0.29000E+01  0.00000E+00  0.00000E+00
  0.30000E+01  0.00000E+00  0.00000E+00
  0.31000E+01  0.00000E+00  0.00000E+00
  0.32000E+01  0.00000E+00  0.00000E+00
  0.33000E+01  0.00000E+00  0.00000E+00
  0.34000E+01  0.00000E+00  0.00000E+00
  0.35000E+01  0.00000E+00  0.00000E+00
  0.36000E+01  0.00000E+00  0.00000E+00
  0.37000E+01  0.00000E+00  0.00000E+00
  0.38000E+01  0.00000E+00  0.00000E+00
  0.39000E+01  0.00000E+00  0.00000E+00
  0.40000E+01  0.10000E+00  0.00000E+00
  0.40000E+01  0.20000E+00  0.00000E+00
  0.40000E+01  0.30000E+00  0.00000E+00
  0.40000E+01  0.40000E+00  0.00000E+00
  0.40000E+01  0.50000E+00  0.00000E+00
  0.40000E+01  0.60000E+00  0.00000E+00
  0.40000E+01  0.70000E+00  0.00000E+00
  0.40000E+01  0.80000E+00  0.00000E+00
  0.40000E+01  0.90000E+00  0.00000E+00
  0.40000E+01  0.10000E+01  0.00000E+00
  0.40000E+01  0.11000E+01  0.00000E+00
  0.40000E+01  0.12000E+01  0.00000E+00
  0.40000E+01  0.13000E+01  0.00000E+00
  0.40000E+01  0.14000E+01  0.00000E+00
  0.40000E+01  0.15000E+01  0.00000E+00
  0.40000E+01  0.16000E+01  0.00000E+00
  0.40000E+01  0.17000E+01  0.00000E+00
  0.40000E+01  0.18000E+01  0.00000E+00
  0.40000E+01  0.19000E+01  0.00000E+00
  0.39000E+01  0.20000E+01  0.00000E+00
  0.38000E+01  0.20000E+01  0.00000E+00
  0.37000E+01  0.20000E+01  0.00000E+00
  0.36000E+01  0.20000E+01  0.00000E+00
  0.35000E+01  0.20000E+01  0.00000E+00
  0.34000E+01  0.20000E+01  0.00000E+00
  0.33000E+01  0.20000E+01  0.00000E+00
  0.32000E+01  0.20000E+01  0.00000E+00
  0.31000E+01  0.20000E+01  0.00000E+00
  0.30000E+01  0.20000E+01  0.00000E+00
  0.29000E+01  0.20000E+01  0.00000E+00
  0.28000E+01  0.20000E+01  0.00000E+00
  0.27000E+01  0.20000E+01  0.00000E+00
  0.26000E+01  0.20000E+01  0.00000E+00
  0.25000E+01  0.20000E+01  0.00000E+00
  0.24000E+01  0.20000E+01  0.00000E+00
  0.23000E+01  0.20000E+01  0.00000E+00
  0.22000E+01  0.20000E+01  0.00000E+00
  0.21000E+01  0.20000E+01  0.00000E+00
  0.20000E+01  0.20000E+01  0.00000E+00
  0.19000E+01  0.20000E+01  0.00000E+00
  0.18000E+01  0.20000E+01  0.00000E+00
  0.17000E+01  0.20000E+01  0.00000E+00
  0.16000E+01  0.20000E+01  0.00000E+00
  0.15000E+01  0.20000E+01  0.00000E+00
  0.14000E+01  0.20000E+01  0.00000E+00
  0.13000E+01  0.20000E+01  0.00000E+00
  0.12000E+01  0.20000E+01  0.00000E+00
  0.11000E+01  0.20000E+01  0.00000E+00
  0.10000E+01  0.20000E+01  0.00000E+00
  0.90000E+00  0.20000E+01  0.00000E+00
  0.80000E+00  0.20000E+01  0.00000E+00
  0.70000E+00  0.20000E+01  0.00000E+00
  0.60000E+00  0.20000E+01  0.00000E+00
  0.50000E+00  0.20000E+01  0.00000E+00
  0.40000E+00  0.20000E+01  0.00000E+00
  0.30000E+00  0.20000E+01  0.00000E+00
  0.20000E+00  0.20000E+01  0.00000E+00
  0.10000E+00  0.20000E+01  0.00000E+00
  0.00000E+00  0.19000E+01  0.00000E+00
  0.00000E+00  0.18000E+01  0.00000E+00
  0.00000E+00  0.17000E+01  0.00000E+00
  0.00000E+00  0.16000E+01  0.00000E+00
  0.00000E+00  0.15000E+01  0.00000E+00
  0.00000E+00  0.14000E+01  0.00000E+00
  0.00000E+00  0.13000E+01  0.00000E+00
  0.00000E+00  0.12000E+01  0.00000E+00
  0.00000E+00  0.11000E+01  0.00000E+00
  0.00000E+00  0.10000E+01  0.00000E+00
  0.00000E+00  0.90000E+00  0.00000E+00
  0.00000E+00  0.80000E+00  0.00000E+00
  0.00000E+00  0.70000E+00  0.00000E+00
  0.00000E+00  0.60000E+00  0.00000E+00
  0.00000E+00  0.50000E+00  0.00000E+00
  0.00000E+00  0.40000E+00  0.00000E+00
  0.00000E+00  0.30000E+00  0.00000E+00
  0.00000E+00  0.20000E+00  0.00000E+00
  0.00000E+00  0.10000E+00  0.00000E+00
  0.15713E+01  0.99981E+00  0.00000E+00
  0.15569E+01  0.94382E+00  0.00000E+00
  0.15290E+01  0.89318E+00  0.00000E+00
  0.14892E+01  0.85104E+00  0.00000E+00
  0.14402E+01  0.82007E+00  0.00000E+00
  0.13850E+01  0.80221E+00  0.00000E+00
  0.13271E+01  0.79858E+00  0.00000E+00
  0.12701E+01  0.80941E+00  0.00000E+00
  0.12176E+01  0.83402E+00  0.00000E+00
  0.11729E+01  0.87086E+00  0.00000E+00
  0.11388E+01  0.91762E+00  0.00000E+00
  0.11175E+01  0.97136E+00  0.00000E+00
  0.11102E+01  0.10287E+01  0.00000E+00
  0.11175E+01  0.10860E+01  0.00000E+00
  0.11388E+01  0.11398E+01  0.00000E+00
  0.11729E+01  0.11865E+01  0.00000E+00
  0.12176E+01  0.12234E+01  0.00000E+00
  0.12701E+01  0.12480E+01  0.00000E+00
  0.13271E+01  0.12588E+01  0.00000E+00
  0.13850E+01  0.12552E+01  0.00000E+00
  0.14402E+01  0.12373E+01  0.00000E+00
  0.14892E+01  0.12064E+01  0.00000E+00
  0.15290E+01  0.11642E+01  0.00000E+00
  0.15569E+01  0.11136E+01  0.00000E+00
  0.15713E+01  0.10576E+01  0.00000E+00
  0.15994E+01  0.10133E+01  0.00000E+00
  0.15863E+01  0.11089E+01  0.00000E+00
  0.25478E+01  0.10053E+00  0.00000E+00
  0.25434E+01  0.19142E+01  0.00000E+00
  0.11238E+01  0.89266E+00  0.00000E+00
  0.11061E+01  0.11423E+01  0.00000E+00
  0.15575E+01  0.89126E+00  0.00000E+00
  0.10894E+01  0.97917E+00  0.00000E+00
  0.15393E+01  0.11910E+01  0.00000E+00
  0.11627E+01  0.12175E+01  0.00000E+00
  0.14962E+01  0.82262E+00  0.00000E+00
  0.29512E+01  0.95010E-01  0.00000E+00
  0.29494E+01  0.19117E+01  0.00000E+00
  0.39186E+01  0.10466E+01  0.00000E+00
  0.11913E+01  0.82197E+00  0.00000E+00
  0.12788E+01  0.78594E+00  0.00000E+00
  0.21500E+01  0.86600E-01  0.00000E+00
  0.21472E+01  0.19005E+01  0.00000E+00
  0.14041E+01  0.78007E+00  0.00000E+00
  0.14641E+01  0.12550E+01  0.00000E+00
  0.13764E+01  0.12826E+01  0.00000E+00
  0.99450E-01  0.63780E+00  0.00000E+00
  0.92450E-01  0.13422E+01  0.00000E+00
  0.12473E+01  0.12677E+01  0.00000E+00
  0.65677E+00  0.19154E+01  0.00000E+00
  0.86110E-01  0.10467E+01  0.00000E+00
  0.75000E+00  0.86600E-01  0.00000E+00
  0.33379E+01  0.88030E-01  0.00000E+00
  0.33490E+01  0.19201E+01  0.00000E+00
  0.18500E+01  0.86600E-01  0.00000E+00
  0.18441E+01  0.19006E+01  0.00000E+00
  0.38922E+01  0.64055E+00  0.00000E+00
  0.39154E+01  0.13500E+01  0.00000E+00
  0.10564E+01  0.85180E-01  0.00000E+00
  0.94817E+00  0.19249E+01  0.00000E+00
  0.15421E+01  0.85450E-01  0.00000E+00
  0.15479E+01  0.19161E+01  0.00000E+00
  0.12386E+01  0.19130E+01  0.00000E+00
  0.45294E+00  0.85030E-01  0.00000E+00
  0.86890E-01  0.16531E+01  0.00000E+00
  0.36495E+01  0.78620E-01  0.00000E+00
  0.36510E+01  0.19107E+01  0.00000E+00
  0.10846E+01  0.10423E+01  0.00000E+00
  0.15860E+01  0.94842E+00  0.00000E+00
  0.13392E+01  0.77093E+00  0.00000E+00
  0.13108E+01  0.12864E+01  0.00000E+00
  0.87300E-01  0.35008E+00  0.00000E+00
  0.34468E+00  0.19176E+01  0.00000E+00
  0.39135E+01  0.16499E+01  0.00000E+00
  0.39252E+01  0.34254E+00  0.00000E+00
  0.13680E+01  0.88360E-01  0.00000E+00
  0.88350E-01  0.84594E+00  0.00000E+00
  0.23513E+01  0.77830E-01  0.00000E+00
  0.23488E+01  0.19154E+01  0.00000E+00
  0.27481E+01  0.80910E-01  0.00000E+00
  0.31480E+01  0.84140E-01  0.00000E+00
  0.31513E+01  0.19149E+01  0.00000E+00
  0.27502E+01  0.19198E+01  0.00000E+00
  0.39134E+01  0.85000E+00  0.00000E+00
  0.25071E+00  0.86200E-01  0.00000E+00
  0.91130E-01  0.18412E+01  0.00000E+00
  0.38461E+01  0.84360E-01  0.00000E+00
  0.38408E+01  0.19092E+01  0.00000E+00
  0.97440E-01  0.15849E+00  0.00000E+00
  0.15988E+01  0.10458E+01  0.00000E+00
  0.16261E+01  0.10305E+01  0.00000E+00
  0.16281E+01  0.99836E+00  0.00000E+00
  0.16554E+01  0.10148E+01  0.00000E+00
  0.16578E+01  0.98164E+00  0.00000E+00
  0.16863E+01  0.99914E+00  0.00000E+00
  0.16884E+01  0.96239E+00  0.00000E+00
  0.17222E+01  0.98417E+00  0.00000E+00
  0.17231E+01  0.93952E+00  0.00000E+00
  0.17605E+01  0.96435E+00  0.00000E+00
  0.17576E+01  0.10098E+01  0.00000E+00
  0.17991E+01  0.98970E+00  0.00000E+00
  0.17625E+01  0.91931E+00  0.00000E+00
[...]
 POINT_DATA         1724
  
 SCALARS WL      float 1
 LOOKUP_TABLE default
  0.21096E-01
  0.69519E-02
 -0.18620E-03
  0.34195E-01
 -0.43979E-01
 -0.33957E-01
 -0.19042E-01
 -0.10924E-01
 -0.10666E-01
 -0.76246E-02
 -0.67231E-02
 -0.94865E-02
 -0.77258E-03
  0.10092E-01
  0.26020E-01
  0.37235E-01
  0.43899E-01
  0.43952E-01
  0.37136E-01
  0.24668E-01
  0.51858E-02
 -0.17880E-01
 -0.42874E-01
 -0.66305E-01
 -0.57531E-01
 -0.40400E-01
 -0.39785E-01
 -0.41369E-01
 -0.43508E-01
  0.20900E-01
  0.20530E-01
  0.19998E-01
  0.19333E-01
  0.18523E-01
  0.17581E-01
  0.16572E-01
  0.15596E-01
  0.14630E-01
  0.13949E-01
  0.13834E-01
  0.14150E-01
  0.15014E-01
  0.16116E-01
  0.16564E-01
  0.16753E-01
  0.16770E-01
  0.16798E-01
  0.17021E-01
  0.16927E-01
  0.16815E-01
  0.16443E-01
  0.16098E-01
  0.15755E-01
  0.16071E-01
  0.17048E-01
  0.18886E-01
  0.21288E-01
  0.23844E-01
  0.26583E-01
  0.28638E-01
  0.29823E-01
  0.30297E-01
  0.29759E-01
  0.28622E-01
  0.26249E-01
  0.22998E-01
  0.18570E-01
  0.11956E-01
  0.00000E+00
  0.00000E+00
  0.00000E+00
  0.00000E+00
  0.00000E+00
  0.00000E+00
  0.00000E+00
  0.00000E+00
  0.00000E+00
  0.00000E+00
  0.00000E+00
  0.00000E+00
  0.00000E+00
  0.00000E+00
  0.00000E+00
  0.00000E+00
  0.00000E+00
  0.00000E+00
  0.00000E+00
 -0.71572E-03
 -0.15134E-02
 -0.11093E-02
  0.38778E-04
  0.16514E-02
  0.35460E-02
  0.48324E-02
  0.55343E-02
  0.55862E-02
  0.47243E-02
  0.36389E-02
  0.30616E-02
  0.30478E-02
  0.32363E-02
  0.37062E-02
  0.43339E-02
  0.49233E-02
  0.53284E-02
  0.54364E-02
  0.50218E-02
  0.43971E-02
  0.38203E-02
  0.34755E-02
  0.37849E-02
  0.50016E-02
  0.70356E-02
  0.96734E-02
  0.12595E-01
  0.15505E-01
  0.18261E-01
  0.20820E-01
  0.23049E-01
  0.25053E-01
  0.26848E-01
  0.28557E-01
  0.30189E-01
  0.31618E-01
  0.32845E-01
  0.33771E-01
  0.34180E-01
  0.34024E-01
  0.33738E-01
  0.33275E-01
  0.32668E-01
  0.31754E-01
  0.30771E-01
  0.29609E-01
  0.28457E-01
  0.27307E-01
  0.26216E-01
  0.25231E-01
  0.24273E-01
  0.23479E-01
  0.22788E-01
  0.22209E-01
  0.21748E-01
  0.21409E-01
  0.21190E-01
 -0.41133E-01
 -0.26211E-01
 -0.12813E-01
 -0.10623E-01
 -0.96017E-02
 -0.68557E-02
 -0.88358E-02
 -0.78807E-02
  0.32070E-02
  0.18632E-01
  0.32330E-01
  0.41805E-01
  0.44683E-01
  0.41841E-01
  0.31943E-01
  0.15299E-01
 -0.52890E-02
 -0.29660E-01
 -0.56547E-01
 -0.67505E-01
 -0.45542E-01
 -0.41053E-01
 -0.39831E-01
 -0.42521E-01
 -0.44463E-01
 -0.40386E-01
 -0.41677E-01
  0.16823E-01
  0.36488E-02
  0.30610E-01
  0.34579E-01
 -0.15162E-01
  0.42727E-01
 -0.38742E-01
  0.13610E-01
 -0.11496E-01
  0.24889E-01
  0.39954E-02
 -0.40663E-03
  0.87492E-02
 -0.72044E-02
  0.16711E-01
  0.54798E-02
 -0.67140E-02
 -0.41478E-01
 -0.63021E-01
  0.23789E-01
  0.31429E-01
 -0.19048E-01
  0.25966E-01
  0.28067E-01
  0.16208E-01
  0.29390E-01
  0.42583E-02
  0.16788E-01
  0.37943E-02
 -0.10147E-01
  0.44696E-02
  0.14040E-01
  0.19625E-01
  0.16214E-01
  0.39295E-02
  0.11269E-01
  0.19010E-01
  0.33394E-01
  0.24173E-01
 -0.39212E-03
  0.44209E-01
 -0.28310E-01
 -0.66095E-02
 -0.43856E-01
  0.21852E-01
  0.31016E-01
  0.12873E-02
  0.27600E-02
  0.15479E-01
  0.25827E-01
  0.15996E-01
  0.48051E-02
  0.20136E-01
  0.28649E-01
  0.58402E-02
  0.30608E-02
 -0.78383E-02
  0.20353E-01
  0.33774E-01
  0.15053E-01
 -0.10183E-02
  0.21116E-01
 -0.42432E-01
 -0.38855E-01
 -0.37136E-01
 -0.37573E-01
 -0.35154E-01
 -0.36678E-01
 -0.33752E-01
 -0.35737E-01
 -0.31758E-01
 -0.33729E-01
 -0.36976E-01
 -0.33780E-01
 -0.28595E-01
 -0.35719E-01
 -0.30859E-01
 -0.30259E-01
 -0.24955E-01
 -0.22138E-01
 -0.17982E-01
 -0.20626E-01
 -0.14895E-01
 -0.17723E-01
 -0.13850E-01
 -0.16698E-01
 -0.14911E-01
 -0.18035E-01
 -0.18085E-01
 -0.11854E-01
 -0.21600E-01
 -0.22536E-01
 -0.16151E-01
 -0.19892E-01
 -0.18057E-01
 -0.12008E-01
 -0.14060E-01
 -0.19923E-01
 -0.12311E-01
 -0.14665E-01
 -0.74567E-02
 -0.53948E-02
 -0.26322E-02
 -0.18701E-02
  0.23329E-03
 -0.70020E-03
 -0.27090E-03
  0.25866E-02
 -0.10866E-03
 -0.30368E-02
 -0.51717E-02
  0.76114E-04
 -0.63226E-02
  0.84706E-03
 -0.57325E-02
 -0.13764E-01
 -0.12343E-01
 -0.39131E-02
 -0.20060E-01
 -0.16609E-01
 -0.22323E-01
 -0.26971E-01
 -0.17317E-01
 -0.19834E-01
 -0.23660E-01
 -0.21764E-01
 -0.13885E-01
 -0.17863E-01
 -0.68818E-02
 -0.11160E-01
 -0.62524E-03
 -0.14178E-01
 -0.11923E-01
 -0.13794E-01
 -0.29064E-02
  0.43089E-02
  0.85644E-02
  0.12820E-01
  0.14050E-01
  0.17821E-01
 -0.90003E-02
 -0.70463E-02
  0.16742E-01
  0.17745E-01
 -0.25436E-01
  0.15945E-01
  0.14545E-01
  0.13933E-01
  0.11965E-01
  0.12143E-01
  0.93010E-02
  0.85385E-02
  0.61001E-02
  0.78198E-02
  0.54633E-02
 -0.10020E-01
  0.25521E-03
 -0.20792E-02
  0.65961E-02
  0.67502E-02
  0.14947E-01
 -0.21224E-01
  0.76809E-02
  0.61992E-02
 -0.17365E-01
  0.28927E-02
 -0.38742E-02
 -0.16893E-02
 -0.40332E-02
  0.31847E-03
  0.85752E-02
  0.77494E-02
  0.53472E-02
  0.76466E-02
  0.11906E-01
  0.12679E-01
  0.84315E-02
  0.54123E-02
  0.82335E-02
  0.99384E-02
  0.10897E-01
  0.12045E-01
  0.13144E-01
  0.12221E-01
  0.14563E-01
  0.13999E-01
  0.16285E-01
  0.16197E-01
  0.18318E-01
  0.17836E-01
  0.19600E-01
  0.20459E-01
  0.21394E-01
  0.22668E-01
  0.23093E-01
  0.24689E-01
  0.24607E-01
  0.26378E-01
  0.25818E-01
  0.27687E-01
  0.26802E-01
  0.28619E-01
  0.27534E-01
  0.29157E-01
  0.25902E-01
  0.28019E-01
  0.29444E-01
  0.28303E-01
  0.29572E-01
  0.30736E-01
  0.30628E-01
  0.31756E-01
  0.31415E-01
  0.32451E-01
  0.31880E-01
  0.32728E-01
  0.32005E-01
  0.32593E-01
  0.31798E-01
  0.32074E-01
  0.31286E-01
  0.31167E-01
  0.30511E-01
  0.29966E-01
  0.31215E-01
  0.31017E-01
  0.29541E-01
  0.28599E-01
  0.23034E-01
  0.28579E-01
  0.27243E-01
  0.28468E-01
  0.29400E-01
  0.27244E-01
  0.27186E-01
  0.25622E-01
  0.25227E-01
  0.23600E-01
  0.22652E-01
  0.21109E-01
  0.19417E-01
  0.27558E-01
  0.26217E-01
  0.18741E-01
  0.33160E-01
  0.28496E-01
  0.29477E-01
  0.27276E-01
  0.29687E-01
  0.33140E-01
  0.18213E-01
  0.15636E-01
  0.24347E-01
  0.28720E-01
  0.29710E-01
  0.26559E-01
  0.25326E-01
  0.14061E-01
  0.14966E-01
  0.11707E-01
  0.20999E-01
  0.26424E-01
  0.27819E-01
  0.30236E-01
  0.30497E-01
  0.30769E-01
 -0.38427E-01
  0.24856E-01
  0.24100E-01
  0.23478E-01
  0.22888E-01
  0.22150E-01
  0.97173E-02
  0.29138E-01
  0.21751E-01
 -0.65040E-03
 -0.11722E-01
 -0.15618E-01
  0.21426E-01
  0.11776E-01
  0.71022E-02
  0.78440E-02
  0.25976E-02
  0.42230E-02
 -0.11652E-02
  0.12416E-02
 -0.38196E-02
 -0.73703E-02
 -0.10673E-01
 -0.53253E-02
 -0.10332E-01
 -0.16682E-01
 -0.14826E-01
 -0.91349E-02
 -0.12108E-01
 -0.73432E-02
 -0.86395E-02
 -0.13387E-01
 -0.88748E-02
 -0.13270E-01
 -0.86516E-02
 -0.49235E-02
 -0.43715E-02
 -0.14438E-02
 -0.53470E-03
  0.13968E-02
  0.24071E-02
  0.36108E-02
  0.47050E-02
  0.34537E-02
  0.55738E-02
  0.61881E-02
  0.71608E-02
  0.72319E-02
  0.81146E-02
  0.63947E-02
 -0.33593E-02
  0.10639E-01
  0.15376E-01
  0.16470E-01
  0.77456E-02
  0.87089E-02
  0.25763E-01
  0.14513E-02
  0.20966E-01
  0.21321E-01
  0.22366E-02
  0.88612E-02
  0.94337E-02
  0.85509E-02
  0.82906E-02
  0.77451E-02
  0.70247E-02
 -0.18724E-01
 -0.18188E-01
  0.61340E-02
  0.50491E-02
 -0.56432E-02
 -0.15025E-02
 -0.35203E-02
  0.27946E-01
  0.60386E-02
  0.98211E-02
 -0.19849E-01
 -0.62583E-02
  0.74792E-02
  0.11419E-01
  0.12717E-01
  0.15466E-01
  0.16404E-01
  0.18275E-01
  0.18816E-01
  0.16695E-01
  0.18939E-01
  0.16528E-01
  0.20084E-01
  0.18826E-01
  0.16130E-01
  0.13200E-01
  0.12567E-01
  0.90750E-02
  0.82531E-02
  0.11915E-01
  0.71944E-02
  0.35822E-02
  0.11408E-01
  0.60109E-02
  0.53388E-02
  0.25500E-02
  0.27621E-02
 -0.78351E-02
  0.86315E-02
 -0.84750E-03
  0.49096E-03
  0.22454E-01
  0.21501E-01
 -0.10035E-01
 -0.47413E-02
  0.83706E-02
  0.13761E-01
  0.17406E-01
  0.17941E-01
  0.10989E-01
 -0.18091E-01
 -0.22430E-01
  0.15355E-01
  0.14086E-01
  0.18844E-01
  0.47184E-03
  0.28549E-01
  0.29719E-01
  0.10194E-02
  0.29491E-02
 -0.90742E-03
  0.14604E-01
  0.39916E-03
 -0.22412E-02
 -0.23734E-01
 -0.24284E-01
 -0.54588E-02
  0.31075E-01
  0.31079E-01
 -0.37504E-02
 -0.56066E-02
  0.48355E-02
 -0.22397E-03
 -0.42330E-02
 -0.11776E-02
 -0.17905E-01
 -0.31728E-01
 -0.48232E-02
  0.12960E-01
  0.14285E-01
 -0.61460E-02
 -0.13749E-02
  0.20116E-01
  0.20346E-01
  0.26147E-02
  0.15498E-01
  0.62830E-02
  0.20630E-01
 -0.13325E-01
 -0.54520E-02
 -0.11456E-01
 -0.58275E-02
 -0.18579E-01
 -0.23261E-02
  0.10691E-01
  0.73917E-02
 -0.14059E-01
  0.61764E-02
  0.26885E-02
  0.22162E-01
  0.15947E-01
 -0.27880E-01
  0.28563E-02
  0.21395E-01
 -0.20034E-02
  0.30863E-01
  0.30881E-01
  0.30741E-01
  0.30463E-01
  0.30628E-01
  0.30371E-01
  0.29832E-01
  0.14780E-01
  0.27213E-01
 -0.11893E-01
 -0.76347E-02
  0.13679E-01
  0.32484E-02
  0.41962E-02
  0.92747E-03
  0.22717E-02
 -0.24833E-01
  0.29278E-01
  0.30418E-01
  0.19944E-01
  0.18939E-01
  0.19322E-01
  0.23089E-01
 -0.29515E-01
 -0.29158E-01
  0.10860E-02
 -0.67305E-02
 -0.84122E-02
 -0.12499E-01
 -0.81476E-02
 -0.11054E-01
 -0.70367E-02
 -0.84598E-02
  0.39602E-02
 -0.45896E-02
 -0.51063E-02
  0.20817E-01
  0.19706E-01
  0.18267E-01
  0.18544E-01
  0.17159E-01
  0.17395E-01
  0.10450E-01
 -0.28431E-01
 -0.66096E-02
  0.31406E-01
  0.31512E-01
  0.17252E-01
 -0.19885E-01
  0.26118E-02
 -0.69871E-03
  0.13388E-02
  0.18688E-02
  0.13722E-01
  0.14572E-01
  0.15096E-01
  0.17922E-02
  0.17201E-01
  0.17642E-01
 -0.31703E-01
 -0.16691E-01
  0.12375E-01
  0.29761E-01
  0.29007E-01
  0.29137E-01
  0.28170E-01
 -0.11380E-01
  0.16535E-01
 -0.33589E-01
 -0.34383E-01
 -0.30342E-01
 -0.36192E-01
  0.22746E-01
  0.23710E-01
  0.44587E-02
 -0.71014E-02
 -0.11270E-01
  0.94801E-02
  0.48963E-02
 -0.34840E-02
  0.15974E-01
  0.16355E-01
  0.16730E-01
  0.16787E-01
 -0.35515E-01
  0.30728E-01
  0.26534E-01
  0.25699E-01
  0.62409E-02
  0.14857E-01
  0.24246E-01
  0.56790E-02
  0.43605E-02
  0.15323E-01
 -0.12748E-01
 -0.14466E-01
  0.13142E-01
  0.14333E-01
  0.16160E-01
  0.15993E-01
 -0.28293E-01
 -0.35367E-01
 -0.38448E-01
 -0.12298E-01
 -0.66163E-02
 -0.53047E-02
  0.14339E-01
  0.97936E-02
  0.10516E-01
 -0.12363E-02
  0.32253E-02
 -0.40211E-03
  0.31829E-01
  0.32037E-01
  0.16008E-01
 -0.16157E-02
 -0.13671E-02
 -0.65136E-03
  0.52058E-02
  0.30094E-01
  0.31218E-01
  0.28849E-01
  0.22075E-02
  0.24762E-02
  0.39137E-02
  0.30747E-01
 -0.83230E-02
 -0.35000E-02
 -0.83799E-02
  0.31387E-01
  0.24874E-01
  0.24016E-01
  0.22937E-01
  0.40115E-02
  0.48527E-02
 -0.11548E-01
  0.86902E-02
  0.26868E-02
 -0.83406E-03
  0.15779E-02
 -0.20097E-02
 -0.35872E-01
 -0.38579E-01
 -0.39155E-01
  0.27995E-01
  0.27074E-01
  0.27365E-01
  0.26234E-01
  0.43931E-02
  0.20696E-01
  0.20784E-01
  0.60671E-02
  0.22089E-01
  0.20872E-01
  0.23377E-01
 -0.12962E-01
 -0.13171E-01
  0.17025E-01
  0.16885E-01
  0.16230E-01
  0.16312E-01
  0.20144E-01
  0.14479E-01
  0.16806E-01
  0.14154E-01
  0.16459E-01
 -0.21782E-01
  0.26554E-01
  0.13989E-01
  0.11478E-01
 -0.38270E-01
 -0.38082E-01
 -0.38137E-02
 -0.10385E-02
  0.32300E-01
  0.13208E-04
  0.17845E-01
 -0.29275E-01
 -0.33619E-01
 -0.43447E-01
 -0.36695E-01
 -0.26704E-01
 -0.26524E-01
 -0.18591E-02
  0.60652E-04
  0.19196E-01
  0.20599E-01
  0.21184E-01
  0.21207E-01
  0.21932E-01
  0.21375E-01
  0.20385E-01
  0.15024E-01
  0.15481E-01
  0.16335E-01
  0.15937E-01
  0.25923E-01
  0.25082E-01
  0.12816E-01
  0.14346E-01
  0.13045E-01
 -0.10939E-01
  0.16445E-01
  0.34274E-02
 -0.39631E-02
  0.20070E-01
  0.31586E-02
  0.26642E-02
  0.42083E-02
  0.15481E-01
 -0.24970E-01
  0.21760E-02
  0.30526E-02
 -0.38957E-01
 -0.36456E-01
 -0.23930E-01
 -0.16432E-01
 -0.12634E-01
 -0.20970E-01
 -0.72876E-02
 -0.11296E-01
 -0.93921E-03
 -0.29123E-02
  0.58130E-02
  0.54740E-02
  0.12725E-01
  0.11633E-01
  0.17141E-01
  0.19188E-01
  0.21892E-01
  0.24448E-01
  0.25706E-01
  0.28469E-01
  0.27771E-01
  0.31691E-01
  0.31084E-01
  0.33847E-01
  0.32637E-01
  0.34740E-01
  0.36347E-01
  0.36590E-01
  0.38518E-01
  0.37888E-01
  0.39893E-01
  0.38553E-01
  0.36833E-01
  0.36997E-01
  0.38608E-01
  0.36519E-01
  0.37333E-01
  0.35515E-01
  0.35789E-01
  0.37563E-01
  0.35433E-01
  0.33847E-01
  0.32894E-01
  0.37159E-01
  0.35608E-01
  0.31712E-01
  0.30233E-01
  0.30991E-01
  0.27829E-01
  0.27010E-01
  0.24517E-01
  0.38259E-01
  0.30486E-01
  0.33290E-01
  0.22080E-01
  0.20217E-01
  0.22556E-01
  0.18933E-01
  0.15464E-01
  0.15176E-01
  0.10863E-01
  0.11694E-01
  0.70707E-02
  0.88146E-02
  0.46117E-02
  0.68128E-02
  0.15557E-01
  0.31600E-01
  0.32567E-01
  0.24777E-01
  0.34855E-01
  0.33725E-01
  0.39363E-01
  0.35351E-01
  0.26369E-01
  0.10024E-01
  0.21388E-01
  0.20866E-01
  0.19290E-02
  0.14812E-01
 -0.38484E-01
 -0.12703E-01
 -0.18679E-01
  0.73505E-02
 -0.37292E-01
  0.14441E-01
  0.13587E-01
  0.22558E-01
  0.22784E-01
  0.44657E-02
 -0.32442E-03
  0.70597E-03
 -0.36505E-02
  0.12502E-01
 -0.46064E-02
  0.53977E-02
  0.38571E-01
  0.64402E-02
  0.19065E-01
  0.18451E-02
 -0.35599E-02
  0.17749E-01
 -0.97578E-03
 -0.58489E-02
 -0.28569E-02
 -0.39767E-01
  0.14799E-02
  0.35339E-01
  0.39940E-01
 -0.86681E-02
 -0.40266E-01
 -0.63556E-02
  0.24181E-01
  0.18641E-01
  0.15633E-01
  0.32578E-01
  0.19976E-01
  0.19009E-01
  0.10717E-01
 -0.87344E-02
 -0.12486E-01
 -0.12732E-01
  0.21650E-01
  0.26079E-01
 -0.40386E-01
  0.16504E-01
  0.30682E-01
 -0.19327E-01
 -0.15717E-01
 -0.76845E-02
  0.54897E-02
  0.17999E-02
 -0.11707E-02
  0.29489E-01
  0.23272E-01
  0.22517E-01
  0.21443E-01
  0.21464E-01
  0.25279E-01
  0.24977E-01
  0.34433E-01
  0.46779E-02
  0.37959E-02
  0.45465E-02
  0.23707E-01
  0.26231E-01
 -0.47181E-02
  0.14601E-01
  0.14579E-01
 -0.19295E-01
 -0.68960E-02
  0.16268E-01
  0.16381E-01
 -0.13705E-01
 -0.10702E-01
 -0.37897E-01
 -0.37766E-01
  0.16790E-01
  0.15119E-01
  0.15093E-01
  0.33383E-01
  0.32163E-01
  0.32069E-01
  0.17312E-01
  0.71813E-02
  0.97166E-03
 -0.22648E-01
 -0.28012E-01
  0.10331E-01
  0.37891E-01
  0.29771E-01
  0.28341E-01
  0.16523E-01
 -0.44566E-01
  0.32751E-01
  0.15786E-01
  0.16195E-01
  0.10135E-01
  0.16419E-01
  0.17448E-01
  0.14737E-01
  0.14055E-01
  0.12081E-01
  0.16995E-01
  0.16925E-01
  0.15367E-01
  0.11874E-01
  0.11700E-01
  0.19343E-01
 -0.39138E-01
 -0.20994E-01
 -0.22179E-01
 -0.17792E-01
 -0.21975E-01
  0.11015E-01
 -0.14048E-01
  0.24661E-01
 -0.18971E-01
  0.92761E-02
  0.73730E-02
  0.97340E-02
  0.35230E-01
  0.49942E-02
  0.77330E-02
  0.22565E-01
 -0.30766E-02
 -0.50101E-02
  0.54478E-02
 -0.11164E-01
 -0.41988E-01
  0.29004E-01
  0.30010E-01
  0.40768E-01
  0.41887E-01
  0.40413E-01
  0.41830E-01
  0.40252E-01
 -0.38964E-02
  0.23017E-01
  0.31255E-02
  0.44162E-01
  0.15460E-01
  0.14934E-01
  0.24307E-01
  0.26107E-01
  0.14295E-01
  0.43447E-02
  0.11479E-01
  0.48400E-03
 -0.61339E-02
  0.16969E-01
  0.14501E-01
 -0.10749E-01
 -0.14527E-01
 -0.14207E-01
 -0.13444E-01
  0.14157E-01
  0.19156E-01
  0.17865E-01
  0.17533E-01
  0.29823E-01
  0.42861E-01
  0.40602E-02
  0.33825E-02
  0.31794E-02
 -0.56908E-02
  0.33331E-02
  0.36236E-02
  0.16065E-01
 -0.64783E-02
 -0.29907E-01
  0.30182E-02
 -0.20979E-02
 -0.68292E-02
 -0.54818E-01
 -0.37277E-01
 -0.39156E-01
  0.30808E-01
  0.32745E-01
  0.32159E-01
 -0.46262E-03
 -0.35943E-01
 -0.30084E-01
 -0.48636E-02
 -0.38263E-02
  0.24176E-01
  0.24788E-01
  0.18845E-01
  0.34359E-01
 -0.37476E-02
 -0.11787E-01
 -0.14826E-01
  0.21820E-01
  0.22439E-01
  0.23423E-01
  0.21373E-01
  0.23159E-01
  0.22719E-01
  0.25282E-01
  0.25814E-01
  0.30824E-01
  0.30626E-01
  0.30623E-01
  0.30112E-01
  0.15418E-01
  0.30391E-01
  0.29784E-01
  0.30931E-01
  0.30967E-01
  0.28934E-01
  0.30602E-01
  0.29976E-01
 -0.10389E-01
  0.52534E-02
  0.54040E-02
  0.49558E-02
  0.58718E-02
  0.60223E-02
  0.54620E-02
  0.68806E-02
  0.63761E-02
  0.59168E-02
  0.44967E-02
  0.49393E-02
  0.24672E-02
  0.26899E-01
  0.27711E-01
  0.29003E-01
  0.29241E-01
  0.30148E-01
  0.30036E-01
  0.30490E-01
 -0.53109E-02
 -0.81859E-02
  0.16277E-01
  0.28413E-01
  0.30397E-01
  0.30706E-01
 -0.16492E-01
 -0.92700E-02
 -0.36039E-02
 -0.78258E-02
  0.24377E-01
  0.28934E-01
  0.29035E-01
  0.24205E-01
  0.15976E-01
  0.80695E-02
  0.86211E-02
  0.58882E-02
  0.57978E-02
  0.31300E-02
  0.22022E-02
 -0.17926E-03
  0.12560E-02
  0.55784E-02
  0.56031E-02
  0.27535E-01
  0.31867E-02
  0.22333E-02
  0.22102E-02
  0.57652E-03
  0.11164E-02
  0.26425E-02
  0.19957E-02
 -0.86435E-04
 -0.10441E-01
  0.21992E-01
  0.24107E-01
  0.25329E-01
  0.12411E-01
  0.46099E-02
  0.40235E-02
  0.47891E-02
  0.41421E-02
  0.50771E-02
  0.42339E-02
  0.29185E-02
  0.53452E-02
  0.54127E-02
  0.17218E-01
  0.17214E-01
  0.18046E-01
  0.17591E-01
  0.18263E-01
  0.18156E-01
  0.18859E-01
 -0.85753E-02
  0.22953E-01
 -0.47623E-01
  0.51400E-03
  0.28758E-02
 -0.72503E-02
  0.18216E-01
  0.31742E-02
  0.32136E-02
  0.36084E-02
  0.43738E-02
  0.47184E-02
  0.31264E-01
 -0.34871E-01
  0.54471E-02
  0.35207E-01
  0.16118E-01
 -0.16526E-02
  0.56330E-02
  0.19071E-01
  0.32431E-02
  0.13563E-01
 -0.18827E-02
  0.22491E-01
  0.32937E-02
  0.12249E-01
  0.52128E-02
  0.92694E-02
 -0.18965E-01
 -0.66617E-02
 -0.67057E-02
 -0.81941E-02
 -0.32143E-01
  0.71404E-02
  0.59777E-03
  0.20367E-01
  0.79612E-02
  0.20770E-01
  0.24140E-01
  0.19916E-01
  0.22868E-01
  0.26862E-01
  0.24949E-01
  0.21744E-01
  0.23309E-01
  0.26072E-01
  0.19753E-01
  0.20285E-01
  0.15742E-01
  0.14787E-01
 -0.28242E-01
  0.81077E-02
  0.94603E-02
  0.32268E-01
  0.31691E-01
  0.32837E-01
  0.32213E-01
  0.33245E-01
  0.51875E-02
  0.27157E-01
  0.42037E-02
  0.34310E-02
  0.16249E-01
 -0.19927E-02
  0.21435E-01
  0.52370E-02
  0.29310E-01
 -0.13064E-01
 -0.44179E-02
 -0.43985E-02
  0.45115E-02
  0.35162E-02
  0.56933E-02
  0.23344E-02
  0.23441E-02
  0.88267E-03
  0.15832E-02
  0.21552E-03
 -0.30225E-03
 -0.81438E-03
  0.20948E-03
  0.10107E-02
  0.14928E-02
  0.26161E-02
  0.25683E-02
  0.28172E-01
  0.20291E-01
  0.15871E-01
  0.92634E-02
  0.95534E-02
 -0.80595E-02
  0.41334E-03
 -0.11110E-01
 -0.24559E-01
 -0.18344E-01
  0.27739E-02
  0.20899E-02
  0.57125E-02
  0.29089E-02
 -0.19908E-02
  0.32001E-01
 -0.60436E-02
 -0.94461E-02
  0.18595E-02
  0.10044E-01
  0.21820E-01
  0.34878E-01
  0.54316E-02
  0.16333E-01
 -0.22522E-02
  0.14347E-01
  0.20297E-03
 -0.21192E-01
 -0.94406E-02
  0.47226E-02
  0.20339E-02
  0.20231E-01
 -0.54505E-02
  0.15819E-01
 -0.25099E-01
 -0.38752E-01
 -0.38685E-01
  0.44274E-02
 -0.18385E-01
  0.34416E-01
  0.77408E-02
  0.15493E-01
 -0.10875E-02
  0.26882E-01
  0.33443E-01
  0.23529E-01
 -0.39444E-01
  0.27714E-02
  0.52665E-02
  0.13461E-01
 -0.12303E-01
 -0.71815E-03
  0.16874E-01
  0.14630E-01
 -0.38141E-01
  0.21538E-02
  0.20427E-01
  0.17037E-02
  0.40792E-01
  0.32721E-02
 -0.16691E-01
  0.22373E-01
 -0.69465E-02
  0.16265E-01
  0.67919E-02
  0.16952E-01
  0.21974E-02
  0.16610E-01
 -0.11880E-01
 -0.67669E-02
  0.16783E-01
  0.26856E-01
 -0.46891E-02
 -0.13587E-02
  0.29482E-01
 -0.25549E-01
 -0.25814E-01
 -0.11897E-02
  0.21994E-01
 -0.50545E-01
 -0.59467E-01
  0.20222E-02
  0.19321E-01
 -0.14958E-01
 -0.21971E-01
 -0.39951E-01
  0.23986E-01
  0.60591E-02
  0.31114E-01
  0.20341E-01
 -0.15723E-02
 -0.19205E-01
  0.20224E-01
  0.11423E-01
  0.24562E-03
  0.19198E-01
  0.30118E-01
  0.16448E-01
  0.19259E-01
  0.30162E-01
  0.21339E-01
  0.40431E-02
  0.20734E-01
 -0.38202E-01
 -0.21769E-01
  0.16988E-01
 -0.12001E-01
  0.28017E-01
  0.13374E-01
  0.43425E-02
  0.21641E-01
  0.20780E-01
  0.46858E-02
  0.24058E-01
  0.24965E-01
  0.29788E-02
  0.20746E-01
  0.43204E-02
  0.18874E-01
 -0.10249E-01
  0.95509E-02
  0.27933E-01
  0.14381E-01
 -0.40121E-01
  0.20979E-01
  0.30392E-01
  0.14670E-02
 -0.36016E-01
  0.33320E-01
  0.16152E-01
  0.13224E-01
  0.11042E-01
  0.31387E-01
 -0.12727E-01
  0.20784E-01
  0.25895E-01
 -0.18035E-03
  0.19980E-01
  0.26575E-01
  0.16823E-01
  0.36159E-01
  0.34054E-01
  0.22397E-01
 -0.95663E-02
  0.20652E-01
  0.15652E-01
 -0.47665E-02
 -0.24070E-01