# vtk DataFile Version 2.0
Unstructured Grid UFVM-ECOMOD
ASCII
DATASET UNSTRUCTURED_GRID
 POINTS         1724  float
  0.00000E+00  0.00000E+00  0.00000E+00
  0.40000E+01  0.00000E+00  0.00000E+00
  0.40000E+01  0.20000E+01  0.00000E+00
  0.00000E+00  0.20000E+01  0.00000E+00
  0.15750E+01  0.10287E+01  0.00000E+00
  0.15677E+01  0.97091E+00  0.00000E+00
  0.15461E+01  0.91674E+00  0.00000E+00
  0.15118E+01  0.86961E+00  0.00000E+00
  0.14667E+01  0.83248E+00  0.00000E+00
  0.14138E+01  0.80767E+00  0.00000E+00
  0.13563E+01  0.79675E+00  0.00000E+00
  0.12979E+01  0.80041E+00  0.00000E+00
  0.12423E+01  0.81842E+00  0.00000E+00
  0.11929E+01  0.84963E+00  0.00000E+00
  0.11529E+01  0.89210E+00  0.00000E+00
  0.11247E+01  0.94315E+00  0.00000E+00
  0.11102E+01  0.99958E+00  0.00000E+00
  0.11102E+01  0.10578E+01  0.00000E+00
  0.11247E+01  0.11143E+01  0.00000E+00
  0.11529E+01  0.11653E+01  0.00000E+00
  0.11929E+01  0.12078E+01  0.00000E+00
  0.12423E+01  0.12390E+01  0.00000E+00
  0.12979E+01  0.12570E+01  0.00000E+00
  0.13563E+01  0.12607E+01  0.00000E+00
  0.14138E+01  0.12497E+01  0.00000E+00
  0.14667E+01  0.12249E+01  0.00000E+00
  0.15118E+01  0.11878E+01  0.00000E+00
  0.15461E+01  0.11407E+01  0.00000E+00
  0.15677E+01  0.10865E+01  0.00000E+00
  0.10000E+00  0.00000E+00  0.00000E+00
  0.20000E+00  0.00000E+00  0.00000E+00
  0.30000E+00  0.00000E+00  0.00000E+00
  0.40000E+00  0.00000E+00  0.00000E+00
  0.50000E+00  0.00000E+00  0.00000E+00
  0.60000E+00  0.00000E+00  0.00000E+00
  0.70000E+00  0.00000E+00  0.00000E+00
  0.80000E+00  0.00000E+00  0.00000E+00
  0.90000E+00  0.00000E+00  0.00000E+00
  0.10000E+01  0.00000E+00  0.00000E+00
  0.11000E+01  0.00000E+00  0.00000E+00
  0.12000E+01  0.00000E+00  0.00000E+00
  0.13000E+01  0.00000E+00  0.00000E+00
  0.14000E+01  0.00000E+00  0.00000E+00
  0.15000E+01  0.00000E+00  0.00000E+00
  0.16000E+01  0.00000E+00  0.00000E+00
  0.17000E+01  0.00000E+00  0.00000E+00
  0.18000E+01  0.00000E+00  0.00000E+00
  0.19000E+01  0.00000E+00  0.00000E+00
  0.20000E+01  0.00000E+00  0.00000E+00
  0.21000E+01  0.00000E+00  0.00000E+00
  0.22000E+01  0.00000E+00  0.00000E+00
  0.23000E+01  0.00000E+00  0.00000E+00
  0.24000E+01  0.00000E+00  0.00000E+00
  0.25000E+01  0.00000E+00  0.00000E+00
  0.26000E+01  0.00000E+00  0.00000E+00
  0.27000E+01  0.00000E+00  0.00000E+00
  0.28000E+01  0.00000E+00  0.00000E+00
  0.29000E+01  0.00000E+00  0.00000E+00
  0.30000E+01  0.00000E+00  0.00000E+00
  0.31000E+01  0.00000E+00  0.00000E+00
  0.32000E+01  0.00000E+00  0.00000E+00
  0.33000E+01  0.00000E+00  0.00000E+00
  0.34000E+01  0.00000E+00  0.00000E+00
  0.35000E+01  0.00000E+00  0.00000E+00
  0.36000E+01  0.00000E+00  0.00000E+00
  0.37000E+01  0.00000E+00  0.00000E+00
  0.38000E+01  0.00000E+00  0.00000E+00
  0.39000E+01  0.00000E+00  0.00000E+00
  0.40000E+01  0.10000E+00  0.00000E+00
  0.40000E+01  0.20000E+00  0.00000E+00
  0.40000E+01  0.30000E+00  0.00000E+00
  0.40000E+01  0.40000E+00  0.00000E+00
  0.40000E+01  0.50000E+00  0.00000E+00
  0.40000E+01  0.60000E+00  0.00000E+00
  0.40000E+01  0.70000E+00  0.00000E+00
  0.40000E+01  0.80000E+00  0.00000E+00
  0.40000E+01  0.90000E+00  0.00000E+00
  0.40000E+01  0.10000E+01  0.00000E+00
  0.40000E+01  0.11000E+01  0.00000E+00
  0.40000E+01  0.12000E+01  0.00000E+00
  0.40000E+01  0.13000E+01  0.00000E+00
  0.40000E+01  0.14000E+01  0.00000E+00
  0.40000E+01  0.15000E+01  0.00000E+00
  0.40000E+01  0.16000E+01  0.00000E+00
  0.40000E+01  0.17000E+01  0.00000E+00
  0.40000E+01  0.18000E+01  0.00000E+00
  0.40000E+01  0.19000E+01  0.00000E+00
  0.39000E+01  0.20000E+01  0.00000E+00
  0.38000E+01  0.20000E+01  0.00000E+00
  0.37000E+01  0.20000E+01  0.00000E+00
  0.36000E+01  0.20000E+01  0.00000E+00
  0.35000E+01  0.20000E+01  0.00000E+00
  0.34000E+01  0.20000E+01  0.00000E+00
  0.33000E+01  0.20000E+01  0.00000E+00
  0.32000E+01  0.20000E+01  0.00000E+00
  0.31000E+01  0.20000E+01  0.00000E+00
  0.30000E+01  0.20000E+01  0.00000E+00
  0.29000E+01  0.20000E+01  0.00000E+00
  0.28000E+01  0.20000E+01  0.00000E+00
  0.27000E+01  0.20000E+01  0.00000E+00
  0.26000E+01  0.20000E+01  0.00000E+00
  0.25000E+01  0.20000E+01  0.00000E+00
  0.24000E+01  0.20000E+01  0.00000E+00
  0.23000E+01  0.20000E+01  0.00000E+00
  0.22000E+01  0.20000E+01  0.00000E+00
  0.21000E+01  0.20000E+01  0.00000E+00
  0.20000E+01  0.20000E+01  0.00000E+00
  0.19000E+01  0.20000E+01  0.00000E+00
  0.18000E+01  0.20000E+01  0.00000E+00
  0.17000E+01  0.20000E+01  0.00000E+00
  0.16000E+01  0.20000E+01  0.00000E+00
  0.15000E+01  0.20000E+01  0.00000E+00
  0.14000E+01  0.20000E+01  0.00000E+00
  0.13000E+01  0.20000E+01  0.00000E+00
  0.12000E+01  0.20000E+01  0.00000E+00
  0.11000E+01  0.20000E+01  0.00000E+00
  0.10000E+01  0.20000E+01  0.00000E+00
  0.90000E+00  0.20000E+01  0.00000E+00
  0.80000E+00  0.20000E+01  0.00000E+00
  0.70000E+00  0.20000E+01  0.00000E+00
  0.60000E+00  0.20000E+01  0.00000E+00
  0.50000E+00  0.20000E+01  0.00000E+00
  0.40000E+00  0.20000E+01  0.00000E+00
  0.30000E+00  0.20000E+01  0.00000E+00
  0.20000E+00  0.20000E+01  0.00000E+00
  0.10000E+00  0.20000E+01  0.00000E+00
  0.00000E+00  0.19000E+01  0.00000E+00
  0.00000E+00  0.18000E+01  0.00000E+00
  0.00000E+00  0.17000E+01  0.00000E+00
  0.00000E+00  0.16000E+01  0.00000E+00
  0.00000E+00  0.15000E+01  0.00000E+00
  0.00000E+00  0.14000E+01  0.00000E+00
  0.00000E+00  0.13000E+01  0.00000E+00
  0.00000E+00  0.12000E+01  0.00000E+00
  0.00000E+00  0.11000E+01  0.00000E+00
  0.00000E+00  0.10000E+01  0.00000E+00
  0.00000E+00  0.90000E+00  0.00000E+00
  0.00000E+00  0.80000E+00  0.00000E+00
  0.00000E+00  0.70000E+00  0.00000E+00
  0.00000E+00  0.60000E+00  0.00000E+00
  0.00000E+00  0.50000E+00  0.00000E+00
  0.00000E+00  0.40000E+00  0.00000E+00
  0.00000E+00  0.30000E+00  0.00000E+00
  0.00000E+00  0.20000E+00  0.00000E+00
  0.00000E+00  0.10000E+00  0.00000E+00
  0.15713E+01  0.99981E+00  0.00000E+00
  0.15569E+01  0.94382E+00  0.00000E+00
  0.15290E+01  0.89318E+00  0.00000E+00
  0.14892E+01  0.85104E+00  0.00000E+00
  0.14402E+01  0.82007E+00  0.00000E+00
  0.13850E+01  0.80221E+00  0.00000E+00
  0.13271E+01  0.79858E+00  0.00000E+00
  0.12701E+01  0.80941E+00  0.00000E+00
  0.12176E+01  0.83402E+00  0.00000E+00
  0.11729E+01  0.87086E+00  0.00000E+00
  0.11388E+01  0.91762E+00  0.00000E+00
  0.11175E+01  0.97136E+00  0.00000E+00
  0.11102E+01  0.10287E+01  0.00000E+00
  0.11175E+01  0.10860E+01  0.00000E+00
  0.11388E+01  0.11398E+01  0.00000E+00
  0.11729E+01  0.11865E+01  0.00000E+00
  0.12176E+01  0.12234E+01  0.00000E+00
  0.12701E+01  0.12480E+01  0.00000E+00
  0.13271E+01  0.12588E+01  0.00000E+00
  0.13850E+01  0.12552E+01  0.00000E+00
  0.14402E+01  0.12373E+01  0.00000E+00
  0.14892E+01  0.12064E+01  0.00000E+00
  0.15290E+01  0.11642E+01  0.00000E+00
  0.15569E+01  0.11136E+01  0.00000E+00
  0.15713E+01  0.10576E+01  0.00000E+00
  0.15994E+01  0.10133E+01  0.00000E+00
  0.15863E+01  0.11089E+01  0.00000E+00
  0.25478E+01  0.10053E+00  0.00000E+00
  0.25434E+01  0.19142E+01  0.00000E+00
  0.11238E+01  0.89266E+00  0.00000E+00
  0.11061E+01  0.11423E+01  0.00000E+00
  0.15575E+01  0.89126E+00  0.00000E+00
  0.10894E+01  0.97917E+00  0.00000E+00
  0.15393E+01  0.11910E+01  0.00000E+00
  0.11627E+01  0.12175E+01  0.00000E+00
  0.14962E+01  0.82262E+00  0.00000E+00
  0.29512E+01  0.95010E-01  0.00000E+00
  0.29494E+01  0.19117E+01  0.00000E+00
  0.39186E+01  0.10466E+01  0.00000E+00
  0.11913E+01  0.82197E+00  0.00000E+00
  0.12788E+01  0.78594E+00  0.00000E+00
  0.21500E+01  0.86600E-01  0.00000E+00
  0.21472E+01  0.19005E+01  0.00000E+00
  0.14041E+01  0.78007E+00  0.00000E+00
  0.14641E+01  0.12550E+01  0.00000E+00
  0.13764E+01  0.12826E+01  0.00000E+00
  0.99450E-01  0.63780E+00  0.00000E+00
  0.92450E-01  0.13422E+01  0.00000E+00
  0.12473E+01  0.12677E+01  0.00000E+00
  0.65677E+00  0.19154E+01  0.00000E+00
  0.86110E-01  0.10467E+01  0.00000E+00
  0.75000E+00  0.86600E-01  0.00000E+00
  0.33379E+01  0.88030E-01  0.00000E+00
  0.33490E+01  0.19201E+01  0.00000E+00
  0.18500E+01  0.86600E-01  0.00000E+00
  0.18441E+01  0.19006E+01  0.00000E+00
  0.38922E+01  0.64055E+00  0.00000E+00
  0.39154E+01  0.13500E+01  0.00000E+00
  0.10564E+01  0.85180E-01  0.00000E+00
  0.94817E+00  0.19249E+01  0.00000E+00
  0.15421E+01  0.85450E-01  0.00000E+00
  0.15479E+01  0.19161E+01  0.00000E+00
  0.12386E+01  0.19130E+01  0.00000E+00
  0.45294E+00  0.85030E-01  0.00000E+00
  0.86890E-01  0.16531E+01  0.00000E+00
  0.36495E+01  0.78620E-01  0.00000E+00
  0.36510E+01  0.19107E+01  0.00000E+00
  0.10846E+01  0.10423E+01  0.00000E+00
  0.15860E+01  0.94842E+00  0.00000E+00
  0.13392E+01  0.77093E+00  0.00000E+00
  0.13108E+01  0.12864E+01  0.00000E+00
  0.87300E-01  0.35008E+00  0.00000E+00
  0.34468E+00  0.19176E+01  0.00000E+00
  0.39135E+01  0.16499E+01  0.00000E+00
  0.39252E+01  0.34254E+00  0.00000E+00
  0.13680E+01  0.88360E-01  0.00000E+00
  0.88350E-01  0.84594E+00  0.00000E+00
  0.23513E+01  0.77830E-01  0.00000E+00
  0.23488E+01  0.19154E+01  0.00000E+00
  0.27481E+01  0.80910E-01  0.00000E+00
  0.31480E+01  0.84140E-01  0.00000E+00
  0.31513E+01  0.19149E+01  0.00000E+00
  0.27502E+01  0.19198E+01  0.00000E+00
  0.39134E+01  0.85000E+00  0.00000E+00
  0.25071E+00  0.86200E-01  0.00000E+00
  0.91130E-01  0.18412E+01  0.00000E+00
  0.38461E+01  0.84360E-01  0.00000E+00
  0.38408E+01  0.19092E+01  0.00000E+00
  0.97440E-01  0.15849E+00  0.00000E+00
  0.15988E+01  0.10458E+01  0.00000E+00
  0.16261E+01  0.10305E+01  0.00000E+00
  0.16281E+01  0.99836E+00  0.00000E+00
  0.16554E+01  0.10148E+01  0.00000E+00
  0.16578E+01  0.98164E+00  0.00000E+00
  0.16863E+01  0.99914E+00  0.00000E+00
  0.16884E+01  0.96239E+00  0.00000E+00
  0.17222E+01  0.98417E+00  0.00000E+00
  0.17231E+01  0.93952E+00  0.00000E+00
  0.17605E+01  0.96435E+00  0.00000E+00
  0.17576E+01  0.10098E+01  0.00000E+00
  0.17991E+01  0.98970E+00  0.00000E+00
  0.17625E+01  0.91931E+00  0.00000E+00
[...]
 POINT_DATA         1724
  
 SCALARS WL      float 1
 LOOKUP_TABLE default
  0.21007E-01
  0.62327E-02
 -0.94147E-04
  0.33741E-01
 -0.44644E-01
 -0.33554E-01
 -0.18872E-01
 -0.12830E-01
 -0.12712E-01
 -0.97106E-02
 -0.92020E-02
 -0.11370E-01
 -0.16008E-02
  0.98478E-02
  0.25945E-01
  0.37184E-01
  0.43813E-01
  0.43799E-01
  0.36880E-01
  0.24286E-01
  0.46189E-02
 -0.18631E-01
 -0.43738E-01
 -0.66184E-01
 -0.52482E-01
 -0.37870E-01
 -0.37460E-01
 -0.40290E-01
 -0.43585E-01
  0.20823E-01
  0.20472E-01
  0.19970E-01
  0.19356E-01
  0.18631E-01
  0.17818E-01
  0.16998E-01
  0.16283E-01
  0.15675E-01
  0.15444E-01
  0.15712E-01
  0.16304E-01
  0.17222E-01
  0.18075E-01
  0.18203E-01
  0.18132E-01
  0.18049E-01
  0.18131E-01
  0.18485E-01
  0.18503E-01
  0.18459E-01
  0.18128E-01
  0.17883E-01
  0.17785E-01
  0.18507E-01
  0.20025E-01
  0.22360E-01
  0.25012E-01
  0.27538E-01
  0.29903E-01
  0.31358E-01
  0.31924E-01
  0.31832E-01
  0.30841E-01
  0.29258E-01
  0.26502E-01
  0.22892E-01
  0.17991E-01
  0.11095E-01
  0.00000E+00
  0.00000E+00
  0.00000E+00
  0.00000E+00
  0.00000E+00
  0.00000E+00
  0.00000E+00
  0.00000E+00
  0.00000E+00
  0.00000E+00
  0.00000E+00
  0.00000E+00
  0.00000E+00
  0.00000E+00
  0.00000E+00
  0.00000E+00
  0.00000E+00
  0.00000E+00
  0.00000E+00
 -0.58637E-03
 -0.16340E-02
 -0.17329E-02
 -0.11011E-02
  0.15328E-03
  0.18847E-02
  0.32148E-02
  0.41152E-02
  0.45324E-02
  0.40287E-02
  0.31103E-02
  0.24420E-02
  0.21901E-02
  0.20844E-02
  0.22675E-02
  0.26744E-02
  0.31292E-02
  0.34894E-02
  0.36248E-02
  0.32667E-02
  0.27009E-02
  0.21843E-02
  0.19348E-02
  0.24048E-02
  0.38360E-02
  0.60928E-02
  0.89243E-02
  0.11992E-01
  0.14988E-01
  0.17784E-01
  0.20345E-01
  0.22551E-01
  0.24517E-01
  0.26268E-01
  0.27932E-01
  0.29534E-01
  0.30949E-01
  0.32210E-01
  0.33221E-01
  0.33761E-01
  0.33679E-01
  0.33493E-01
  0.33171E-01
  0.32683E-01
  0.31939E-01
  0.31080E-01
  0.29993E-01
  0.28857E-01
  0.27672E-01
  0.26513E-01
  0.25449E-01
  0.24407E-01
  0.23543E-01
  0.22798E-01
  0.22178E-01
  0.21689E-01
  0.21332E-01
  0.21103E-01
 -0.41340E-01
 -0.25509E-01
 -0.13717E-01
 -0.12915E-01
 -0.11435E-01
 -0.91782E-02
 -0.11180E-01
 -0.92459E-02
  0.27577E-02
  0.18504E-01
  0.32278E-01
  0.41738E-01
  0.44568E-01
  0.41646E-01
  0.31625E-01
  0.14822E-01
 -0.59510E-02
 -0.30501E-01
 -0.57308E-01
 -0.65057E-01
 -0.41317E-01
 -0.38342E-01
 -0.38242E-01
 -0.42085E-01
 -0.45106E-01
 -0.40789E-01
 -0.41481E-01
  0.19310E-01
  0.23432E-02
  0.30546E-01
  0.34297E-01
 -0.15614E-01
  0.42653E-01
 -0.36891E-01
  0.13116E-01
 -0.13621E-01
  0.28200E-01
  0.34267E-02
  0.59320E-04
  0.84228E-02
 -0.87104E-02
  0.18336E-01
  0.36645E-02
 -0.87899E-02
 -0.38245E-01
 -0.62133E-01
  0.23917E-01
  0.31606E-01
 -0.19808E-01
  0.25411E-01
  0.28464E-01
  0.16768E-01
  0.30921E-01
  0.25944E-02
  0.18257E-01
  0.21488E-02
 -0.74837E-02
  0.42564E-02
  0.15717E-01
  0.19153E-01
  0.17704E-01
  0.26599E-02
  0.10614E-01
  0.19081E-01
  0.33107E-01
  0.24454E-01
 -0.12654E-02
  0.44081E-01
 -0.27785E-01
 -0.88924E-02
 -0.44691E-01
  0.21823E-01
  0.30353E-01
  0.12202E-02
  0.38566E-02
  0.17427E-01
  0.26121E-01
  0.17802E-01
  0.30828E-02
  0.23563E-01
  0.31108E-01
  0.45709E-02
  0.23720E-02
 -0.68915E-02
  0.20313E-01
  0.33294E-01
  0.14490E-01
 -0.10053E-02
  0.21047E-01
 -0.43077E-01
 -0.39302E-01
 -0.37294E-01
 -0.37805E-01
 -0.35181E-01
 -0.36805E-01
 -0.33769E-01
 -0.35885E-01
 -0.31762E-01
 -0.33920E-01
 -0.37337E-01
 -0.34377E-01
 -0.28523E-01
 -0.36710E-01
 -0.31978E-01
 -0.31834E-01
 -0.26273E-01
 -0.23679E-01
 -0.19108E-01
 -0.21400E-01
 -0.15487E-01
 -0.17793E-01
 -0.13794E-01
 -0.16012E-01
 -0.14134E-01
 -0.16583E-01
 -0.16657E-01
 -0.12737E-01
 -0.19639E-01
 -0.20947E-01
 -0.14986E-01
 -0.19259E-01
 -0.15987E-01
 -0.11498E-01
 -0.14447E-01
 -0.20957E-01
 -0.14062E-01
 -0.17436E-01
 -0.99983E-02
 -0.70646E-02
 -0.44676E-02
 -0.43319E-02
 -0.13913E-02
 -0.18946E-02
 -0.12893E-02
  0.12807E-02
 -0.85599E-03
 -0.33661E-02
 -0.51443E-02
 -0.46251E-03
 -0.64033E-02
  0.25260E-03
 -0.62853E-02
 -0.13798E-01
 -0.13272E-01
 -0.48632E-02
 -0.20826E-01
 -0.18392E-01
 -0.24281E-01
 -0.28697E-01
 -0.19977E-01
 -0.22881E-01
 -0.25485E-01
 -0.19179E-01
 -0.11140E-01
 -0.14696E-01
 -0.33501E-02
 -0.77777E-02
  0.34430E-02
 -0.17335E-01
 -0.14219E-01
 -0.17386E-01
 -0.14612E-03
  0.74620E-02
  0.12531E-01
  0.15766E-01
  0.17667E-01
  0.20296E-01
 -0.12010E-01
 -0.10336E-01
  0.19515E-01
  0.19629E-01
 -0.25301E-01
  0.18075E-01
  0.16014E-01
  0.15676E-01
  0.13097E-01
  0.12834E-01
  0.98050E-02
  0.84853E-02
  0.60485E-02
  0.82241E-02
  0.54139E-02
 -0.93297E-02
  0.72183E-03
 -0.34601E-02
  0.62863E-02
  0.54837E-02
  0.18198E-01
 -0.21026E-01
  0.80362E-02
  0.61692E-02
 -0.17220E-01
  0.23858E-02
 -0.62230E-02
 -0.41941E-02
 -0.70966E-02
 -0.20476E-02
  0.89657E-02
  0.78027E-02
  0.50056E-02
  0.74514E-02
  0.11958E-01
  0.12259E-01
  0.92869E-02
  0.48628E-02
  0.78837E-02
  0.99413E-02
  0.10798E-01
  0.12290E-01
  0.13311E-01
  0.12096E-01
  0.14710E-01
  0.13917E-01
  0.16473E-01
  0.16202E-01
  0.18569E-01
  0.18275E-01
  0.20078E-01
  0.20774E-01
  0.21909E-01
  0.23040E-01
  0.23635E-01
  0.25102E-01
  0.25158E-01
  0.26812E-01
  0.26367E-01
  0.28124E-01
  0.27331E-01
  0.29040E-01
  0.28027E-01
  0.29550E-01
  0.26483E-01
  0.28468E-01
  0.29795E-01
  0.28707E-01
  0.29878E-01
  0.30981E-01
  0.30828E-01
  0.31894E-01
  0.31507E-01
  0.32485E-01
  0.31870E-01
  0.32666E-01
  0.31899E-01
  0.32444E-01
  0.31606E-01
  0.31849E-01
  0.31018E-01
  0.30875E-01
  0.30177E-01
  0.29615E-01
  0.30980E-01
  0.31072E-01
  0.29154E-01
  0.28203E-01
  0.23706E-01
  0.28933E-01
  0.27685E-01
  0.28038E-01
  0.28976E-01
  0.26813E-01
  0.26780E-01
  0.25187E-01
  0.24804E-01
  0.23154E-01
  0.22205E-01
  0.20644E-01
  0.18938E-01
  0.27956E-01
  0.26674E-01
  0.19412E-01
  0.33235E-01
  0.28032E-01
  0.29018E-01
  0.26891E-01
  0.30017E-01
  0.32957E-01
  0.17719E-01
  0.15115E-01
  0.23895E-01
  0.28222E-01
  0.29220E-01
  0.26982E-01
  0.25764E-01
  0.14592E-01
  0.14433E-01
  0.11135E-01
  0.20542E-01
  0.26724E-01
  0.28184E-01
  0.29805E-01
  0.30042E-01
  0.30400E-01
 -0.38851E-01
  0.25336E-01
  0.24521E-01
  0.23948E-01
  0.23266E-01
  0.22582E-01
  0.10455E-01
  0.28608E-01
  0.22068E-01
 -0.33179E-02
 -0.11434E-01
 -0.15229E-01
  0.21594E-01
  0.11216E-01
  0.64788E-02
  0.72105E-02
  0.19031E-02
  0.35154E-02
 -0.19385E-02
  0.44826E-03
 -0.46743E-02
 -0.81878E-02
 -0.11523E-01
 -0.62563E-02
 -0.11222E-01
 -0.17371E-01
 -0.15466E-01
 -0.10052E-01
 -0.12737E-01
 -0.83001E-02
 -0.93488E-02
 -0.13584E-01
 -0.93026E-02
 -0.13196E-01
 -0.89459E-02
 -0.56027E-02
 -0.50044E-02
 -0.23842E-02
 -0.14742E-02
  0.22066E-03
  0.12314E-02
  0.22465E-02
  0.33403E-02
  0.22511E-02
  0.42130E-02
  0.46973E-02
  0.57279E-02
  0.57003E-02
  0.67064E-02
  0.50892E-02
 -0.41062E-02
  0.10211E-01
  0.15777E-01
  0.16514E-01
  0.62668E-02
  0.73909E-02
  0.26179E-01
 -0.29628E-03
  0.21340E-01
  0.21826E-01
  0.52078E-03
  0.76209E-02
  0.82839E-02
  0.73201E-02
  0.73125E-02
  0.66850E-02
  0.62921E-02
 -0.18230E-01
 -0.17728E-01
  0.52524E-02
  0.44863E-02
 -0.75180E-02
 -0.28139E-02
 -0.42520E-02
  0.27424E-01
  0.51719E-02
  0.10283E-01
 -0.19144E-01
 -0.64716E-02
  0.67090E-02
  0.10514E-01
  0.12032E-01
  0.14771E-01
  0.16002E-01
  0.17977E-01
  0.18868E-01
  0.16618E-01
  0.19382E-01
  0.16834E-01
  0.20325E-01
  0.19690E-01
  0.16835E-01
  0.13465E-01
  0.13212E-01
  0.93748E-02
  0.89499E-02
  0.12935E-01
  0.83378E-02
  0.45176E-02
  0.12829E-01
  0.76549E-02
  0.48731E-02
  0.23409E-02
  0.24336E-02
 -0.79068E-02
  0.77436E-02
 -0.65547E-03
  0.40799E-03
  0.22730E-01
  0.21707E-01
 -0.99663E-02
 -0.57749E-02
  0.77223E-02
  0.13028E-01
  0.16904E-01
  0.18598E-01
  0.12796E-01
 -0.19559E-01
 -0.23995E-01
  0.17508E-01
  0.15907E-01
  0.20120E-01
 -0.21570E-03
  0.27993E-01
  0.29160E-01
 -0.22602E-03
  0.17481E-02
 -0.69826E-03
  0.15345E-01
  0.27113E-04
 -0.18645E-02
 -0.22713E-01
 -0.23833E-01
 -0.53408E-02
  0.30697E-01
  0.30816E-01
 -0.37490E-02
 -0.42374E-02
  0.69089E-02
  0.20265E-02
 -0.38631E-02
 -0.12333E-02
 -0.17305E-01
 -0.33257E-01
 -0.59208E-02
  0.13578E-01
  0.15186E-01
 -0.61547E-02
 -0.17709E-02
  0.20566E-01
  0.20946E-01
  0.13977E-02
  0.17562E-01
  0.46896E-02
  0.21717E-01
 -0.13742E-01
 -0.63723E-02
 -0.13003E-01
 -0.76136E-02
 -0.18591E-01
 -0.19500E-02
  0.12751E-01
  0.61089E-02
 -0.15330E-01
  0.82213E-02
  0.10734E-02
  0.22339E-01
  0.17734E-01
 -0.27963E-01
  0.24406E-02
  0.21506E-01
 -0.48355E-02
  0.30606E-01
  0.30757E-01
  0.30617E-01
  0.30484E-01
  0.30674E-01
  0.30387E-01
  0.29991E-01
  0.16565E-01
  0.26675E-01
 -0.14094E-01
 -0.95533E-02
  0.12695E-01
  0.24362E-02
  0.34579E-02
  0.41091E-03
  0.14484E-02
 -0.23117E-01
  0.28691E-01
  0.29836E-01
  0.20254E-01
  0.19495E-01
  0.20045E-01
  0.23339E-01
 -0.28363E-01
 -0.27470E-01
 -0.22096E-03
 -0.56755E-02
 -0.60557E-02
 -0.14456E-01
 -0.97876E-02
 -0.12575E-01
 -0.83449E-02
 -0.97242E-02
  0.62113E-02
 -0.57261E-02
 -0.64111E-02
  0.21544E-01
  0.20546E-01
  0.19121E-01
  0.19506E-01
  0.18170E-01
  0.18486E-01
  0.12481E-01
 -0.28948E-01
 -0.92761E-02
  0.31153E-01
  0.31136E-01
  0.17912E-01
 -0.20452E-01
  0.19780E-02
 -0.29623E-02
  0.10519E-02
  0.12285E-02
  0.14751E-01
  0.15872E-01
  0.16270E-01
  0.21332E-02
  0.16947E-01
  0.18983E-01
 -0.31549E-01
 -0.17630E-01
  0.12409E-01
  0.29912E-01
  0.29280E-01
  0.29421E-01
  0.28528E-01
 -0.10755E-01
  0.18465E-01
 -0.31675E-01
 -0.32104E-01
 -0.28857E-01
 -0.34484E-01
  0.22904E-01
  0.23946E-01
  0.39831E-02
 -0.48181E-02
 -0.80336E-02
  0.93740E-02
  0.48434E-02
 -0.50231E-02
  0.17847E-01
  0.18455E-01
  0.18567E-01
  0.18722E-01
 -0.33889E-01
  0.30415E-01
  0.26028E-01
  0.25185E-01
  0.55743E-02
  0.16401E-01
  0.24786E-01
  0.47991E-02
  0.35734E-02
  0.16711E-01
 -0.13121E-01
 -0.16821E-01
  0.14680E-01
  0.15907E-01
  0.17357E-01
  0.17018E-01
 -0.29046E-01
 -0.35074E-01
 -0.39127E-01
 -0.10378E-01
 -0.48140E-02
 -0.46746E-02
  0.13428E-01
  0.80929E-02
  0.89732E-02
 -0.16060E-02
  0.22955E-02
 -0.11734E-02
  0.31601E-01
  0.31671E-01
  0.17563E-01
 -0.27288E-02
 -0.26539E-02
 -0.15674E-02
  0.26895E-02
  0.29481E-01
  0.30624E-01
  0.28247E-01
 -0.15160E-04
  0.62096E-03
  0.20076E-02
  0.30637E-01
 -0.77439E-02
 -0.34809E-02
 -0.75607E-02
  0.31348E-01
  0.24386E-01
  0.23525E-01
  0.22462E-01
  0.37871E-02
  0.49397E-02
 -0.12967E-01
  0.79938E-02
  0.16270E-02
 -0.17706E-02
  0.50580E-03
 -0.30229E-02
 -0.36229E-01
 -0.37423E-01
 -0.38678E-01
  0.28348E-01
  0.27462E-01
  0.27753E-01
  0.26600E-01
  0.27214E-02
  0.20838E-01
  0.20843E-01
  0.57823E-02
  0.21613E-01
  0.20400E-01
  0.22882E-01
 -0.13294E-01
 -0.13953E-01
  0.18749E-01
  0.18591E-01
  0.18161E-01
  0.17905E-01
  0.21027E-01
  0.13937E-01
  0.16300E-01
  0.13606E-01
  0.15952E-01
 -0.23768E-01
  0.26008E-01
  0.13436E-01
  0.10867E-01
 -0.37189E-01
 -0.36409E-01
 -0.53827E-02
 -0.24994E-02
  0.32106E-01
 -0.10410E-02
  0.18719E-01
 -0.28746E-01
 -0.33272E-01
 -0.41574E-01
 -0.36758E-01
 -0.27198E-01
 -0.27190E-01
 -0.18376E-02
 -0.35318E-03
  0.19064E-01
  0.21093E-01
  0.22086E-01
  0.22410E-01
  0.23595E-01
  0.23390E-01
  0.21918E-01
  0.16778E-01
  0.16865E-01
  0.17732E-01
  0.17175E-01
  0.26297E-01
  0.25386E-01
  0.14178E-01
  0.15784E-01
  0.14312E-01
 -0.12114E-01
  0.15942E-01
  0.55747E-02
 -0.11837E-02
  0.20158E-01
  0.26792E-02
  0.22926E-02
  0.32750E-02
  0.16994E-01
 -0.24432E-01
  0.18132E-02
  0.24458E-02
 -0.38632E-01
 -0.36959E-01
 -0.24684E-01
 -0.17206E-01
 -0.13384E-01
 -0.21734E-01
 -0.79914E-02
 -0.12010E-01
 -0.15835E-02
 -0.35567E-02
  0.52324E-02
  0.49022E-02
  0.12209E-01
  0.11097E-01
  0.16660E-01
  0.18736E-01
  0.21461E-01
  0.24052E-01
  0.25319E-01
  0.28121E-01
  0.27417E-01
  0.31388E-01
  0.30778E-01
  0.33588E-01
  0.32366E-01
  0.34517E-01
  0.36136E-01
  0.36417E-01
  0.38355E-01
  0.37761E-01
  0.39772E-01
  0.38469E-01
  0.36743E-01
  0.36959E-01
  0.38570E-01
  0.36531E-01
  0.37342E-01
  0.35578E-01
  0.35839E-01
  0.37561E-01
  0.35462E-01
  0.33941E-01
  0.32955E-01
  0.37140E-01
  0.35560E-01
  0.31854E-01
  0.30331E-01
  0.31000E-01
  0.27870E-01
  0.26970E-01
  0.24485E-01
  0.38055E-01
  0.30170E-01
  0.33047E-01
  0.21957E-01
  0.20078E-01
  0.22539E-01
  0.18797E-01
  0.15169E-01
  0.14881E-01
  0.10347E-01
  0.11209E-01
  0.62882E-02
  0.81247E-02
  0.35882E-02
  0.59612E-02
  0.15052E-01
  0.31292E-01
  0.32728E-01
  0.24680E-01
  0.34924E-01
  0.33861E-01
  0.39325E-01
  0.35248E-01
  0.26002E-01
  0.95357E-02
  0.21424E-01
  0.20862E-01
  0.25536E-02
  0.16993E-01
 -0.38339E-01
 -0.16405E-01
 -0.21612E-01
  0.66124E-02
 -0.34887E-01
  0.15897E-01
  0.14784E-01
  0.25016E-01
  0.24906E-01
  0.39739E-02
 -0.88491E-03
  0.76498E-03
 -0.41708E-02
  0.12096E-01
 -0.56162E-02
  0.48364E-02
  0.38524E-01
  0.45020E-02
  0.19922E-01
  0.67466E-03
 -0.54094E-02
  0.17619E-01
 -0.25619E-02
 -0.70735E-02
 -0.41873E-03
 -0.39790E-01
  0.83787E-03
  0.35304E-01
  0.39725E-01
 -0.10490E-01
 -0.37633E-01
 -0.70192E-02
  0.24508E-01
  0.18162E-01
  0.17037E-01
  0.32243E-01
  0.22282E-01
  0.20815E-01
  0.10048E-01
 -0.64269E-02
 -0.96522E-02
 -0.88999E-02
  0.21182E-01
  0.25602E-01
 -0.37644E-01
  0.17385E-01
  0.30148E-01
 -0.18950E-01
 -0.14472E-01
 -0.93873E-02
  0.47983E-02
  0.97427E-03
 -0.25447E-02
  0.29683E-01
  0.23414E-01
  0.22593E-01
  0.22849E-01
  0.23301E-01
  0.26531E-01
  0.26737E-01
  0.34365E-01
  0.29341E-02
  0.20506E-02
  0.47197E-02
  0.23291E-01
  0.25844E-01
 -0.53868E-02
  0.16271E-01
  0.16441E-01
 -0.20572E-01
 -0.10732E-01
  0.17674E-01
  0.17687E-01
 -0.99576E-02
 -0.69247E-02
 -0.35404E-01
 -0.36112E-01
  0.17875E-01
  0.16391E-01
  0.16126E-01
  0.33509E-01
  0.32374E-01
  0.31593E-01
  0.17142E-01
  0.62714E-02
 -0.27292E-03
 -0.21847E-01
 -0.29237E-01
  0.89498E-02
  0.37663E-01
  0.29141E-01
  0.27735E-01
  0.18037E-01
 -0.40883E-01
  0.32296E-01
  0.16422E-01
  0.16950E-01
  0.95720E-02
  0.17795E-01
  0.16980E-01
  0.16328E-01
  0.15401E-01
  0.12991E-01
  0.16494E-01
  0.18575E-01
  0.15749E-01
  0.13610E-01
  0.14359E-01
  0.19529E-01
 -0.36328E-01
 -0.21091E-01
 -0.22300E-01
 -0.18390E-01
 -0.21885E-01
  0.12132E-01
 -0.15851E-01
  0.24242E-01
 -0.20191E-01
  0.88540E-02
  0.66759E-02
  0.95262E-02
  0.34979E-01
  0.41738E-02
  0.66765E-02
  0.22153E-01
 -0.19208E-02
 -0.28403E-02
  0.42766E-02
 -0.12820E-01
 -0.42295E-01
  0.28639E-01
  0.29682E-01
  0.40615E-01
  0.41773E-01
  0.40330E-01
  0.41747E-01
  0.40194E-01
 -0.46527E-02
  0.23078E-01
  0.22795E-02
  0.44063E-01
  0.17060E-01
  0.16361E-01
  0.24563E-01
  0.26287E-01
  0.16007E-01
  0.57453E-02
  0.12535E-01
  0.15076E-02
 -0.48523E-02
  0.18589E-01
  0.14012E-01
 -0.12506E-01
 -0.16556E-01
 -0.16338E-01
 -0.15693E-01
  0.13606E-01
  0.20257E-01
  0.19286E-01
  0.19482E-01
  0.29776E-01
  0.42693E-01
  0.34443E-02
  0.28936E-02
  0.26643E-02
 -0.79672E-02
  0.28805E-02
  0.30428E-02
  0.15802E-01
 -0.83239E-02
 -0.30726E-01
  0.22623E-02
 -0.30283E-02
 -0.76842E-02
 -0.55353E-01
 -0.38035E-01
 -0.39454E-01
  0.30487E-01
  0.32602E-01
  0.31908E-01
 -0.14806E-02
 -0.35853E-01
 -0.29801E-01
 -0.58010E-02
 -0.14038E-02
  0.24394E-01
  0.25012E-01
  0.18945E-01
  0.34359E-01
 -0.19687E-02
 -0.10423E-01
 -0.14059E-01
  0.22447E-01
  0.23145E-01
  0.24043E-01
  0.22167E-01
  0.23881E-01
  0.23259E-01
  0.25853E-01
  0.26319E-01
  0.30581E-01
  0.30279E-01
  0.30292E-01
  0.29708E-01
  0.16818E-01
  0.30416E-01
  0.29939E-01
  0.30850E-01
  0.30771E-01
  0.29200E-01
  0.30641E-01
  0.30140E-01
 -0.69040E-02
  0.34412E-02
  0.36679E-02
  0.33526E-02
  0.42652E-02
  0.43195E-02
  0.40108E-02
  0.53099E-02
  0.46977E-02
  0.41800E-02
  0.30840E-02
  0.36946E-02
  0.17674E-02
  0.27258E-01
  0.28104E-01
  0.29361E-01
  0.29624E-01
  0.30417E-01
  0.30255E-01
  0.30775E-01
 -0.54778E-02
 -0.77530E-02
  0.18525E-01
  0.28721E-01
  0.30714E-01
  0.30992E-01
 -0.15113E-01
 -0.82074E-02
 -0.54446E-02
 -0.84343E-02
  0.24286E-01
  0.29204E-01
  0.29321E-01
  0.24859E-01
  0.18059E-01
  0.72339E-02
  0.78658E-02
  0.49629E-02
  0.49623E-02
  0.21372E-02
  0.13047E-02
 -0.12202E-02
  0.10591E-03
  0.48071E-02
  0.45627E-02
  0.27045E-01
  0.17319E-02
  0.89938E-03
  0.73353E-03
 -0.78119E-03
 -0.32114E-03
  0.10844E-02
  0.50238E-03
 -0.13971E-02
 -0.85943E-02
  0.21509E-01
  0.23592E-01
  0.24798E-01
  0.13169E-01
  0.28947E-02
  0.23711E-02
  0.30708E-02
  0.25137E-02
  0.33884E-02
  0.26636E-02
  0.14392E-02
  0.35790E-02
  0.37922E-02
  0.17555E-01
  0.17684E-01
  0.18333E-01
  0.18208E-01
  0.18680E-01
  0.18336E-01
  0.19007E-01
 -0.10004E-01
  0.22553E-01
 -0.46959E-01
 -0.29886E-03
  0.17216E-02
 -0.63890E-02
  0.21300E-01
  0.21807E-02
  0.24493E-02
  0.29178E-02
  0.33943E-02
  0.38883E-02
  0.31376E-01
 -0.36261E-01
  0.73446E-02
  0.35158E-01
  0.18456E-01
 -0.29043E-02
  0.38510E-02
  0.19324E-01
  0.16672E-02
  0.13435E-01
 -0.31121E-02
  0.26011E-01
  0.27432E-02
  0.13657E-01
  0.34370E-02
  0.81217E-02
 -0.18937E-01
 -0.68202E-02
 -0.77933E-02
 -0.94498E-02
 -0.31426E-01
  0.64791E-02
 -0.41941E-03
  0.21207E-01
  0.66148E-02
  0.22763E-01
  0.26178E-01
  0.21814E-01
  0.24976E-01
  0.28977E-01
  0.27288E-01
  0.23651E-01
  0.25512E-01
  0.28705E-01
  0.19753E-01
  0.20277E-01
  0.17196E-01
  0.15857E-01
 -0.28165E-01
  0.63847E-02
  0.89922E-02
  0.31617E-01
  0.31043E-01
  0.32236E-01
  0.31626E-01
  0.32749E-01
  0.43315E-02
  0.30122E-01
  0.26540E-02
  0.22801E-02
  0.17893E-01
 -0.29690E-02
  0.21380E-01
  0.36712E-02
  0.31293E-01
 -0.14741E-01
 -0.37513E-02
 -0.32409E-02
  0.44152E-02
  0.33050E-02
  0.53841E-02
  0.21875E-02
  0.21131E-02
  0.72643E-03
  0.11231E-02
 -0.20955E-03
 -0.37011E-03
 -0.12119E-02
 -0.61407E-03
 -0.24268E-03
  0.30127E-03
  0.11175E-02
  0.10078E-02
  0.29338E-01
  0.20167E-01
  0.16097E-01
  0.91042E-02
  0.10390E-01
 -0.48859E-02
  0.42539E-03
 -0.14456E-01
 -0.24896E-01
 -0.19068E-01
  0.14962E-02
  0.18612E-02
  0.50942E-02
  0.18163E-02
  0.73001E-03
  0.31729E-01
 -0.37871E-02
 -0.64224E-02
  0.34438E-02
  0.11703E-01
  0.22602E-01
  0.34688E-01
  0.39077E-02
  0.18323E-01
 -0.10489E-02
  0.13351E-01
 -0.14301E-02
 -0.21385E-01
 -0.11700E-01
  0.51407E-02
 -0.10220E-03
  0.20977E-01
 -0.63436E-02
  0.16907E-01
 -0.24744E-01
 -0.38074E-01
 -0.37419E-01
  0.33818E-02
 -0.21296E-01
  0.34419E-01
  0.63605E-02
  0.16532E-01
 -0.17426E-02
  0.27275E-01
  0.33230E-01
  0.23872E-01
 -0.39867E-01
  0.12497E-02
  0.37601E-02
  0.13001E-01
 -0.11582E-01
 -0.16005E-02
  0.16237E-01
  0.16705E-01
 -0.38420E-01
  0.14052E-02
  0.21073E-01
  0.14427E-02
  0.40608E-01
  0.13739E-02
 -0.15331E-01
  0.22382E-01
 -0.79576E-02
  0.16133E-01
  0.56492E-02
  0.16737E-01
  0.13732E-02
  0.17514E-01
 -0.13378E-01
 -0.10135E-01
  0.18324E-01
  0.26288E-01
 -0.57163E-02
 -0.24067E-02
  0.28843E-01
 -0.26374E-01
 -0.24095E-01
 -0.24164E-02
  0.22084E-01
 -0.45770E-01
 -0.56065E-01
  0.76546E-03
  0.18841E-01
 -0.15685E-01
 -0.21624E-01
 -0.38535E-01
  0.26807E-01
  0.50058E-02
  0.31011E-01
  0.21173E-01
 -0.26551E-02
 -0.17864E-01
  0.20909E-01
  0.10794E-01
 -0.55060E-03
  0.20839E-01
  0.29602E-01
  0.18116E-01
  0.18818E-01
  0.29790E-01
  0.24234E-01
  0.37656E-02
  0.20741E-01
 -0.36173E-01
 -0.21968E-01
  0.18617E-01
 -0.11330E-01
  0.27447E-01
  0.14626E-01
  0.31530E-02
  0.22998E-01
  0.21030E-01
  0.41283E-02
  0.23592E-01
  0.25597E-01
  0.10832E-02
  0.20703E-01
  0.36643E-02
  0.19839E-01
 -0.11825E-01
  0.97338E-02
  0.28286E-01
  0.15736E-01
 -0.37294E-01
  0.22513E-01
  0.30559E-01
  0.10640E-02
 -0.36945E-01
  0.32731E-01
  0.16556E-01
  0.14451E-01
  0.11919E-01
  0.31236E-01
 -0.14424E-01
  0.20719E-01
  0.25442E-01
 -0.10051E-03
  0.20165E-01
  0.26940E-01
  0.16328E-01
  0.36022E-01
  0.34171E-01
  0.21937E-01
 -0.10102E-01
  0.20179E-01
  0.17323E-01
 -0.54157E-02
 -0.23979E-01