# vtk DataFile Version 2.0
Unstructured Grid UFVM-ECOMOD
ASCII
DATASET UNSTRUCTURED_GRID
 POINTS         1810  float
  0.00000E+00  0.00000E+00  0.00000E+00
  0.40000E+01  0.00000E+00  0.00000E+00
  0.40000E+01  0.20000E+01  0.00000E+00
  0.00000E+00  0.20000E+01  0.00000E+00
  0.12217E+01  0.98333E+00  0.00000E+00
  0.81167E+00  0.11389E+01  0.00000E+00
  0.12217E+01  0.12944E+01  0.00000E+00
  0.10000E+00  0.00000E+00  0.00000E+00
  0.20000E+00  0.00000E+00  0.00000E+00
  0.30000E+00  0.00000E+00  0.00000E+00
  0.40000E+00  0.00000E+00  0.00000E+00
  0.50000E+00  0.00000E+00  0.00000E+00
  0.60000E+00  0.00000E+00  0.00000E+00
  0.70000E+00  0.00000E+00  0.00000E+00
  0.80000E+00  0.00000E+00  0.00000E+00
  0.90000E+00  0.00000E+00  0.00000E+00
  0.10000E+01  0.00000E+00  0.00000E+00
  0.11000E+01  0.00000E+00  0.00000E+00
  0.12000E+01  0.00000E+00  0.00000E+00
  0.13000E+01  0.00000E+00  0.00000E+00
  0.14000E+01  0.00000E+00  0.00000E+00
  0.15000E+01  0.00000E+00  0.00000E+00
  0.16000E+01  0.00000E+00  0.00000E+00
  0.17000E+01  0.00000E+00  0.00000E+00
  0.18000E+01  0.00000E+00  0.00000E+00
  0.19000E+01  0.00000E+00  0.00000E+00
  0.20000E+01  0.00000E+00  0.00000E+00
  0.21000E+01  0.00000E+00  0.00000E+00
  0.22000E+01  0.00000E+00  0.00000E+00
  0.23000E+01  0.00000E+00  0.00000E+00
  0.24000E+01  0.00000E+00  0.00000E+00
  0.25000E+01  0.00000E+00  0.00000E+00
  0.26000E+01  0.00000E+00  0.00000E+00
  0.27000E+01  0.00000E+00  0.00000E+00
  0.28000E+01  0.00000E+00  0.00000E+00
  0.29000E+01  0.00000E+00  0.00000E+00
  0.30000E+01  0.00000E+00  0.00000E+00
  0.31000E+01  0.00000E+00  0.00000E+00
  0.32000E+01  0.00000E+00  0.00000E+00
  0.33000E+01  0.00000E+00  0.00000E+00
  0.34000E+01  0.00000E+00  0.00000E+00
  0.35000E+01  0.00000E+00  0.00000E+00
  0.36000E+01  0.00000E+00  0.00000E+00
  0.37000E+01  0.00000E+00  0.00000E+00
  0.38000E+01  0.00000E+00  0.00000E+00
  0.39000E+01  0.00000E+00  0.00000E+00
  0.40000E+01  0.10000E+00  0.00000E+00
  0.40000E+01  0.20000E+00  0.00000E+00
  0.40000E+01  0.30000E+00  0.00000E+00
  0.40000E+01  0.40000E+00  0.00000E+00
  0.40000E+01  0.50000E+00  0.00000E+00
  0.40000E+01  0.60000E+00  0.00000E+00
  0.40000E+01  0.70000E+00  0.00000E+00
  0.40000E+01  0.80000E+00  0.00000E+00
  0.40000E+01  0.90000E+00  0.00000E+00
  0.40000E+01  0.10000E+01  0.00000E+00
  0.40000E+01  0.11000E+01  0.00000E+00
  0.40000E+01  0.12000E+01  0.00000E+00
  0.40000E+01  0.13000E+01  0.00000E+00
  0.40000E+01  0.14000E+01  0.00000E+00
  0.40000E+01  0.15000E+01  0.00000E+00
  0.40000E+01  0.16000E+01  0.00000E+00
  0.40000E+01  0.17000E+01  0.00000E+00
  0.40000E+01  0.18000E+01  0.00000E+00
  0.40000E+01  0.19000E+01  0.00000E+00
  0.39000E+01  0.20000E+01  0.00000E+00
  0.38000E+01  0.20000E+01  0.00000E+00
  0.37000E+01  0.20000E+01  0.00000E+00
  0.36000E+01  0.20000E+01  0.00000E+00
  0.35000E+01  0.20000E+01  0.00000E+00
  0.34000E+01  0.20000E+01  0.00000E+00
  0.33000E+01  0.20000E+01  0.00000E+00
  0.32000E+01  0.20000E+01  0.00000E+00
  0.31000E+01  0.20000E+01  0.00000E+00
  0.30000E+01  0.20000E+01  0.00000E+00
  0.29000E+01  0.20000E+01  0.00000E+00
  0.28000E+01  0.20000E+01  0.00000E+00
  0.27000E+01  0.20000E+01  0.00000E+00
  0.26000E+01  0.20000E+01  0.00000E+00
  0.25000E+01  0.20000E+01  0.00000E+00
  0.24000E+01  0.20000E+01  0.00000E+00
  0.23000E+01  0.20000E+01  0.00000E+00
  0.22000E+01  0.20000E+01  0.00000E+00
  0.21000E+01  0.20000E+01  0.00000E+00
  0.20000E+01  0.20000E+01  0.00000E+00
  0.19000E+01  0.20000E+01  0.00000E+00
  0.18000E+01  0.20000E+01  0.00000E+00
  0.17000E+01  0.20000E+01  0.00000E+00
  0.16000E+01  0.20000E+01  0.00000E+00
  0.15000E+01  0.20000E+01  0.00000E+00
  0.14000E+01  0.20000E+01  0.00000E+00
  0.13000E+01  0.20000E+01  0.00000E+00
  0.12000E+01  0.20000E+01  0.00000E+00
  0.11000E+01  0.20000E+01  0.00000E+00
  0.10000E+01  0.20000E+01  0.00000E+00
  0.90000E+00  0.20000E+01  0.00000E+00
  0.80000E+00  0.20000E+01  0.00000E+00
  0.70000E+00  0.20000E+01  0.00000E+00
  0.60000E+00  0.20000E+01  0.00000E+00
  0.50000E+00  0.20000E+01  0.00000E+00
  0.40000E+00  0.20000E+01  0.00000E+00
  0.30000E+00  0.20000E+01  0.00000E+00
  0.20000E+00  0.20000E+01  0.00000E+00
  0.10000E+00  0.20000E+01  0.00000E+00
  0.00000E+00  0.19000E+01  0.00000E+00
  0.00000E+00  0.18000E+01  0.00000E+00
  0.00000E+00  0.17000E+01  0.00000E+00
  0.00000E+00  0.16000E+01  0.00000E+00
  0.00000E+00  0.15000E+01  0.00000E+00
  0.00000E+00  0.14000E+01  0.00000E+00
  0.00000E+00  0.13000E+01  0.00000E+00
  0.00000E+00  0.12000E+01  0.00000E+00
  0.00000E+00  0.11000E+01  0.00000E+00
  0.00000E+00  0.10000E+01  0.00000E+00
  0.00000E+00  0.90000E+00  0.00000E+00
  0.00000E+00  0.80000E+00  0.00000E+00
  0.00000E+00  0.70000E+00  0.00000E+00
  0.00000E+00  0.60000E+00  0.00000E+00
  0.00000E+00  0.50000E+00  0.00000E+00
  0.00000E+00  0.40000E+00  0.00000E+00
  0.00000E+00  0.30000E+00  0.00000E+00
  0.00000E+00  0.20000E+00  0.00000E+00
  0.00000E+00  0.10000E+00  0.00000E+00
  0.11989E+01  0.99198E+00  0.00000E+00
  0.11761E+01  0.10006E+01  0.00000E+00
  0.11533E+01  0.10093E+01  0.00000E+00
  0.11306E+01  0.10179E+01  0.00000E+00
  0.11078E+01  0.10265E+01  0.00000E+00
  0.10850E+01  0.10352E+01  0.00000E+00
  0.10622E+01  0.10438E+01  0.00000E+00
  0.10394E+01  0.10525E+01  0.00000E+00
  0.10167E+01  0.10611E+01  0.00000E+00
  0.99389E+00  0.10697E+01  0.00000E+00
  0.97111E+00  0.10784E+01  0.00000E+00
  0.94833E+00  0.10870E+01  0.00000E+00
  0.92556E+00  0.10957E+01  0.00000E+00
  0.90278E+00  0.11043E+01  0.00000E+00
  0.88000E+00  0.11130E+01  0.00000E+00
  0.85722E+00  0.11216E+01  0.00000E+00
  0.83444E+00  0.11302E+01  0.00000E+00
  0.83444E+00  0.11475E+01  0.00000E+00
  0.85722E+00  0.11562E+01  0.00000E+00
  0.88000E+00  0.11648E+01  0.00000E+00
  0.90278E+00  0.11735E+01  0.00000E+00
  0.92556E+00  0.11821E+01  0.00000E+00
  0.94833E+00  0.11907E+01  0.00000E+00
  0.97111E+00  0.11994E+01  0.00000E+00
  0.99389E+00  0.12080E+01  0.00000E+00
  0.10167E+01  0.12167E+01  0.00000E+00
  0.10394E+01  0.12253E+01  0.00000E+00
  0.10622E+01  0.12340E+01  0.00000E+00
  0.10850E+01  0.12426E+01  0.00000E+00
  0.11078E+01  0.12512E+01  0.00000E+00
  0.11306E+01  0.12599E+01  0.00000E+00
  0.11533E+01  0.12685E+01  0.00000E+00
  0.11761E+01  0.12772E+01  0.00000E+00
  0.11989E+01  0.12858E+01  0.00000E+00
  0.12217E+01  0.12705E+01  0.00000E+00
  0.12217E+01  0.12466E+01  0.00000E+00
  0.12217E+01  0.12227E+01  0.00000E+00
  0.12217E+01  0.11987E+01  0.00000E+00
  0.12217E+01  0.11748E+01  0.00000E+00
  0.12217E+01  0.11508E+01  0.00000E+00
  0.12217E+01  0.11269E+01  0.00000E+00
  0.12217E+01  0.11030E+01  0.00000E+00
  0.12217E+01  0.10791E+01  0.00000E+00
  0.12217E+01  0.10551E+01  0.00000E+00
  0.12217E+01  0.10312E+01  0.00000E+00
  0.12217E+01  0.10073E+01  0.00000E+00
  0.12429E+01  0.10188E+01  0.00000E+00
  0.12399E+01  0.11882E+01  0.00000E+00
  0.21377E+01  0.78680E-01  0.00000E+00
  0.21538E+01  0.19174E+01  0.00000E+00
  0.83774E+00  0.11061E+01  0.00000E+00
  0.97541E+00  0.10554E+01  0.00000E+00
  0.11166E+01  0.10045E+01  0.00000E+00
  0.29463E+01  0.19156E+01  0.00000E+00
  0.26515E+01  0.81480E-01  0.00000E+00
  0.25477E+01  0.19110E+01  0.00000E+00
  0.30502E+01  0.68680E-01  0.00000E+00
  0.83912E+00  0.11750E+01  0.00000E+00
  0.95224E+00  0.12148E+01  0.00000E+00
  0.10661E+01  0.12580E+01  0.00000E+00
  0.11804E+01  0.13002E+01  0.00000E+00
  0.39119E+01  0.10505E+01  0.00000E+00
  0.17555E+01  0.84130E-01  0.00000E+00
  0.64649E+00  0.99150E-01  0.00000E+00
  0.17446E+01  0.19250E+01  0.00000E+00
  0.86600E-01  0.65000E+00  0.00000E+00
  0.14551E+01  0.78430E-01  0.00000E+00
  0.96058E+00  0.81690E-01  0.00000E+00
  0.33501E+01  0.19134E+01  0.00000E+00
  0.39162E+01  0.63967E+00  0.00000E+00
  0.82470E-01  0.14561E+01  0.00000E+00
  0.55009E+00  0.19215E+01  0.00000E+00
  0.85020E-01  0.95314E+00  0.00000E+00
  0.39167E+01  0.13623E+01  0.00000E+00
  0.33616E+01  0.95540E-01  0.00000E+00
  0.90682E+00  0.10774E+01  0.00000E+00
  0.10433E+01  0.10284E+01  0.00000E+00
  0.11799E+01  0.97718E+00  0.00000E+00
  0.12429E+01  0.10931E+01  0.00000E+00
  0.12436E+01  0.12583E+01  0.00000E+00
  0.85035E+00  0.19198E+01  0.00000E+00
  0.14457E+01  0.19288E+01  0.00000E+00
  0.11516E+01  0.19130E+01  0.00000E+00
  0.36450E+01  0.85340E-01  0.00000E+00
  0.84610E-01  0.34945E+00  0.00000E+00
  0.36500E+01  0.19134E+01  0.00000E+00
  0.35776E+00  0.89100E-01  0.00000E+00
  0.39086E+01  0.16476E+01  0.00000E+00
  0.39134E+01  0.35000E+00  0.00000E+00
  0.83900E-01  0.11460E+01  0.00000E+00
  0.35715E+00  0.19076E+01  0.00000E+00
  0.83410E-01  0.16549E+01  0.00000E+00
  0.12495E+01  0.81910E-01  0.00000E+00
  0.19505E+01  0.76550E-01  0.00000E+00
  0.23503E+01  0.82860E-01  0.00000E+00
  0.19504E+01  0.19252E+01  0.00000E+00
  0.23461E+01  0.19181E+01  0.00000E+00
  0.28427E+01  0.83720E-01  0.00000E+00
  0.31542E+01  0.19172E+01  0.00000E+00
  0.27508E+01  0.19148E+01  0.00000E+00
  0.39150E+01  0.84994E+00  0.00000E+00
  0.88020E+00  0.11939E+01  0.00000E+00
  0.99745E+00  0.12340E+01  0.00000E+00
  0.12424E+01  0.11389E+01  0.00000E+00
  0.11119E+01  0.12747E+01  0.00000E+00
  0.78910E-01  0.18478E+01  0.00000E+00
  0.38489E+01  0.73890E-01  0.00000E+00
  0.86600E-01  0.15000E+00  0.00000E+00
  0.38461E+01  0.19156E+01  0.00000E+00
  0.83750E-01  0.10487E+01  0.00000E+00
  0.16314E+00  0.10008E+01  0.00000E+00
  0.16591E+00  0.91287E+00  0.00000E+00
  0.23730E+00  0.95594E+00  0.00000E+00
  0.24013E+00  0.87512E+00  0.00000E+00
  0.30661E+00  0.91623E+00  0.00000E+00
  0.30296E+00  0.99591E+00  0.00000E+00
  0.30938E+00  0.83944E+00  0.00000E+00
  0.37444E+00  0.87856E+00  0.00000E+00
  0.37563E+00  0.80503E+00  0.00000E+00
  0.43612E+00  0.84332E+00  0.00000E+00
  0.43924E+00  0.77347E+00  0.00000E+00
  0.49710E+00  0.80859E+00  0.00000E+00
  0.50063E+00  0.74182E+00  0.00000E+00
  0.55658E+00  0.77549E+00  0.00000E+00
[...]
 POINT_DATA         1810
  
 SCALARS WL      float 1
 LOOKUP_TABLE default
  0.12725E-01
  0.20578E-02
 -0.74761E-03
  0.15909E-01
 -0.28448E-01
  0.26788E-01
 -0.18792E-01
  0.12865E-01
  0.13151E-01
  0.13448E-01
  0.13679E-01
  0.13734E-01
  0.13578E-01
  0.13091E-01
  0.12189E-01
  0.11039E-01
  0.97210E-02
  0.83741E-02
  0.70421E-02
  0.59367E-02
  0.50958E-02
  0.46434E-02
  0.45538E-02
  0.47943E-02
  0.53161E-02
  0.60757E-02
  0.69787E-02
  0.78474E-02
  0.85855E-02
  0.89628E-02
  0.89791E-02
  0.85559E-02
  0.78416E-02
  0.70006E-02
  0.61728E-02
  0.54009E-02
  0.49357E-02
  0.46551E-02
  0.48159E-02
  0.52734E-02
  0.58685E-02
  0.65091E-02
  0.67968E-02
  0.65298E-02
  0.54493E-02
  0.35988E-02
  0.00000E+00
  0.00000E+00
  0.00000E+00
  0.00000E+00
  0.00000E+00
  0.00000E+00
  0.00000E+00
  0.00000E+00
  0.00000E+00
  0.00000E+00
  0.00000E+00
  0.00000E+00
  0.00000E+00
  0.00000E+00
  0.00000E+00
  0.00000E+00
  0.00000E+00
  0.00000E+00
  0.00000E+00
 -0.99390E-03
 -0.97921E-03
 -0.38651E-03
  0.68880E-03
  0.21630E-02
  0.36185E-02
  0.51385E-02
  0.65923E-02
  0.76187E-02
  0.80902E-02
  0.77940E-02
  0.69839E-02
  0.60299E-02
  0.52887E-02
  0.47738E-02
  0.46049E-02
  0.44416E-02
  0.43227E-02
  0.42692E-02
  0.43984E-02
  0.45630E-02
  0.46827E-02
  0.47435E-02
  0.48099E-02
  0.49227E-02
  0.52723E-02
  0.58999E-02
  0.66747E-02
  0.77103E-02
  0.88257E-02
  0.99875E-02
  0.11093E-01
  0.12052E-01
  0.12857E-01
  0.13536E-01
  0.14151E-01
  0.14694E-01
  0.15209E-01
  0.15667E-01
  0.15957E-01
  0.16003E-01
  0.16063E-01
  0.16128E-01
  0.16183E-01
  0.16200E-01
  0.16151E-01
  0.16033E-01
  0.15829E-01
  0.15547E-01
  0.15203E-01
  0.14814E-01
  0.14393E-01
  0.13989E-01
  0.13621E-01
  0.13313E-01
  0.13054E-01
  0.12862E-01
  0.12744E-01
 -0.13799E-01
 -0.85724E-02
 -0.45220E-02
 -0.20497E-02
  0.16137E-02
  0.42902E-02
  0.50753E-02
  0.71000E-02
  0.88579E-02
  0.10482E-01
  0.11684E-01
  0.13445E-01
  0.14769E-01
  0.16956E-01
  0.18458E-01
  0.20410E-01
  0.23593E-01
  0.26035E-01
  0.22889E-01
  0.21673E-01
  0.19530E-01
  0.18679E-01
  0.16700E-01
  0.15907E-01
  0.14398E-01
  0.13267E-01
  0.12077E-01
  0.10646E-01
  0.91476E-02
  0.76080E-02
  0.56430E-02
  0.28871E-02
 -0.31144E-03
 -0.50630E-02
 -0.23545E-01
 -0.22531E-01
 -0.23839E-01
 -0.26639E-01
 -0.31592E-01
 -0.37335E-01
 -0.42759E-01
 -0.46194E-01
 -0.47106E-01
 -0.45294E-01
 -0.41666E-01
 -0.38032E-01
 -0.39877E-01
 -0.29218E-01
  0.81600E-02
  0.43875E-02
  0.21342E-01
  0.11132E-01
 -0.66172E-03
  0.79203E-02
  0.74076E-02
  0.49405E-02
  0.47627E-02
  0.23337E-01
  0.16336E-01
  0.99164E-02
 -0.19523E-02
 -0.26230E-03
  0.50606E-02
  0.13345E-01
  0.46139E-02
  0.14238E-01
  0.47661E-02
  0.10256E-01
  0.44275E-02
  0.38167E-02
  0.16070E-01
  0.13268E-01
  0.15376E-01
 -0.51219E-02
  0.55909E-02
  0.15645E-01
  0.60755E-02
 -0.10353E-01
 -0.47808E-01
 -0.22749E-01
  0.10651E-01
  0.49564E-02
  0.71068E-02
  0.67892E-02
  0.13263E-01
  0.80931E-04
  0.13595E-01
 -0.26649E-02
  0.33126E-02
  0.15883E-01
  0.14431E-01
  0.15926E-01
  0.64041E-02
  0.65510E-02
  0.90234E-02
  0.44674E-02
  0.46173E-02
  0.58514E-02
  0.71467E-02
  0.64671E-02
  0.28799E-02
  0.20353E-01
  0.13745E-01
 -0.41155E-01
  0.68716E-02
  0.15811E-01
  0.46225E-02
  0.12919E-01
 -0.11377E-02
  0.15663E-01
  0.15526E-01
  0.15261E-01
  0.15441E-01
  0.15187E-01
  0.15370E-01
  0.15613E-01
  0.15103E-01
  0.15281E-01
  0.14983E-01
  0.15127E-01
  0.14806E-01
  0.14881E-01
  0.14532E-01
  0.14527E-01
  0.14142E-01
  0.14026E-01
  0.13649E-01
  0.13379E-01
  0.15299E-01
  0.13070E-01
  0.12621E-01
  0.13046E-01
  0.12091E-01
  0.11748E-01
  0.11001E-01
  0.10790E-01
  0.98635E-02
  0.97867E-02
  0.86880E-02
  0.87339E-02
  0.73972E-02
  0.75340E-02
  0.60887E-02
  0.64616E-02
  0.49618E-02
  0.13823E-01
  0.12635E-01
  0.55182E-02
  0.39503E-02
  0.30511E-02
  0.21375E-02
  0.32251E-02
  0.16558E-02
  0.20834E-03
  0.66926E-04
 -0.17552E-02
 -0.14039E-02
  0.36698E-03
 -0.60388E-03
 -0.27056E-02
 -0.12898E-02
 -0.37197E-02
 -0.14595E-02
 -0.41060E-02
 -0.84023E-03
 -0.36252E-02
  0.43039E-03
 -0.21786E-02
  0.23809E-02
 -0.49175E-04
  0.43386E-02
  0.15861E-02
  0.53094E-02
  0.11819E-02
  0.39997E-02
 -0.28747E-02
 -0.65510E-03
  0.57782E-02
  0.13467E-02
 -0.58197E-02
 -0.36415E-02
  0.16069E-02
 -0.43211E-02
 -0.90627E-02
 -0.25079E-03
 -0.76126E-02
  0.34964E-02
 -0.38322E-02
 -0.11325E-01
 -0.13965E-01
 -0.15897E-01
 -0.16599E-01
 -0.15707E-01
 -0.11744E-01
 -0.99401E-02
 -0.48459E-02
 -0.39922E-02
 -0.74533E-02
 -0.36622E-02
 -0.41690E-03
 -0.14653E-02
  0.17013E-02
  0.30233E-04
 -0.34955E-02
 -0.23255E-02
  0.13055E-02
 -0.77617E-03
  0.35089E-03
  0.25538E-02
  0.33846E-03
 -0.28135E-02
 -0.21674E-02
  0.13960E-03
 -0.31178E-02
 -0.51837E-02
 -0.13919E-02
 -0.41325E-02
 -0.59516E-02
  0.31616E-02
 -0.47021E-02
 -0.71124E-02
 -0.38983E-02
 -0.24278E-02
  0.30635E-03
  0.53178E-02
  0.39898E-02
 -0.58357E-02
 -0.90230E-02
 -0.64254E-02
  0.74106E-02
 -0.94275E-03
  0.67173E-02
  0.63229E-02
  0.10720E-01
  0.68761E-02
 -0.28033E-02
  0.89474E-03
 -0.72272E-02
  0.72499E-02
  0.71759E-02
 -0.49534E-03
  0.22884E-02
  0.36121E-02
  0.65383E-02
  0.76325E-02
  0.74100E-02
  0.75078E-02
  0.74614E-02
  0.70064E-02
  0.70151E-02
  0.67253E-02
  0.35242E-03
 -0.21254E-02
  0.25308E-02
  0.14516E-01
  0.14731E-01
  0.78739E-02
  0.75213E-02
 -0.15589E-02
  0.27946E-02
  0.82655E-02
  0.78727E-02
  0.76891E-02
  0.84067E-02
  0.80149E-02
 -0.60383E-02
 -0.63771E-02
  0.22650E-02
  0.66248E-03
  0.38423E-02
  0.25556E-02
  0.47966E-02
  0.39053E-02
  0.15372E-02
  0.32738E-02
  0.14813E-02
  0.33794E-02
  0.26826E-02
  0.52957E-02
  0.42948E-02
  0.45585E-02
  0.24429E-02
  0.60620E-02
  0.55726E-02
  0.62256E-02
  0.42059E-02
 -0.86454E-02
 -0.63403E-02
 -0.67568E-02
 -0.42694E-02
 -0.29218E-02
 -0.96484E-03
  0.94219E-03
  0.22714E-02
 -0.18060E-03
 -0.12324E-02
  0.25763E-02
  0.70374E-03
  0.37930E-02
  0.25139E-02
  0.41579E-02
  0.24258E-02
  0.37039E-02
  0.16705E-02
  0.29849E-02
  0.80112E-03
 -0.16547E-02
 -0.27872E-02
  0.11477E-03
 -0.31999E-02
 -0.23740E-03
 -0.29749E-02
 -0.78494E-02
 -0.62590E-02
 -0.24016E-02
 -0.45534E-02
 -0.85109E-02
 -0.54762E-02
 -0.79652E-02
 -0.29654E-02
 -0.32473E-02
 -0.19806E-02
 -0.24860E-02
 -0.12575E-02
 -0.20559E-02
 -0.22847E-03
 -0.78915E-03
  0.11867E-02
  0.14278E-02
  0.30506E-02
  0.37013E-02
  0.49708E-02
  0.59155E-02
  0.67012E-02
  0.77883E-02
 -0.30815E-02
 -0.36204E-03
  0.27277E-02
  0.81657E-02
  0.92950E-02
  0.91919E-02
  0.10518E-01
  0.10571E-01
  0.11748E-01
  0.11495E-01
  0.12675E-01
  0.12244E-01
  0.13294E-01
  0.14016E-01
  0.14318E-01
  0.13677E-01
  0.14535E-01
  0.15273E-01
  0.15292E-01
  0.16105E-01
  0.15901E-01
  0.15230E-01
  0.15691E-01
  0.16325E-01
  0.16008E-01
  0.16552E-01
  0.15170E-01
  0.16173E-01
  0.16588E-01
  0.16209E-01
  0.15930E-01
  0.17052E-01
  0.16198E-01
  0.91158E-02
  0.10611E-01
 -0.75459E-02
  0.16486E-01
  0.17086E-01
  0.16175E-01
  0.16707E-01
  0.17271E-01
 -0.12842E-01
 -0.10021E-01
 -0.16697E-01
 -0.15679E-01
 -0.98892E-02
 -0.20704E-01
 -0.15709E-01
 -0.30640E-01
  0.28989E-02
 -0.37566E-04
 -0.32324E-01
 -0.44093E-01
 -0.42686E-01
 -0.55531E-01
 -0.51955E-01
 -0.61192E-01
 -0.21168E-01
  0.47044E-02
 -0.13256E-01
  0.93643E-02
  0.51904E-02
  0.63223E-02
  0.58512E-02
 -0.50777E-02
  0.13944E-01
  0.13143E-01
  0.13483E-01
  0.60648E-02
  0.73308E-02
  0.65626E-02
 -0.43634E-03
  0.15357E-02
  0.38956E-02
 -0.29290E-02
  0.77703E-02
  0.60374E-02
  0.18026E-02
  0.15143E-02
  0.43160E-02
  0.67397E-02
 -0.51950E-01
 -0.58873E-01
 -0.64054E-01
 -0.59852E-01
  0.64380E-03
  0.71665E-02
  0.90105E-02
  0.10792E-01
  0.15044E-02
  0.42202E-02
  0.16779E-01
  0.17311E-01
  0.17998E-01
  0.17995E-01
  0.17156E-01
  0.17796E-01
  0.69859E-02
  0.26523E-02
 -0.53208E-01
 -0.38592E-01
  0.59142E-02
  0.83592E-02
  0.62007E-02
  0.52349E-02
  0.50713E-02
  0.45011E-02
  0.45277E-02
  0.40938E-02
  0.29222E-02
  0.24780E-03
 -0.36680E-02
 -0.21095E-02
 -0.63635E-02
 -0.25529E-02
  0.13356E-02
  0.22512E-02
  0.66566E-02
  0.71450E-02
  0.67240E-02
  0.88579E-02
  0.75190E-02
  0.90808E-02
  0.77702E-02
  0.94846E-02
  0.59907E-02
  0.61517E-02
  0.42240E-02
  0.42605E-02
  0.21366E-02
  0.64169E-02
  0.16786E-01
  0.17026E-01
  0.17965E-01
  0.17025E-01
  0.28241E-02
  0.85142E-02
 -0.41053E-01
  0.20871E-02
 -0.38954E-03
  0.14412E-04
 -0.28641E-02
 -0.20679E-02
 -0.42341E-02
  0.67370E-02
  0.12101E-01
  0.78385E-02
  0.18937E-01
 -0.15176E-02
  0.12476E-01
  0.13512E-01
  0.64578E-02
 -0.18385E-02
  0.16221E-01
  0.15969E-01
  0.16717E-01
  0.15433E-01
  0.15970E-01
  0.83056E-02
  0.14547E-01
  0.14834E-01
  0.12679E-01
  0.84214E-02
  0.89166E-02
  0.97437E-02
 -0.35218E-01
  0.94066E-02
 -0.39829E-02
  0.13137E-01
 -0.61314E-01
 -0.55115E-01
 -0.50586E-01
 -0.45483E-01
  0.28603E-02
  0.27035E-02
  0.16392E-01
  0.57549E-02
 -0.37474E-01
 -0.33086E-01
 -0.37800E-01
 -0.27410E-01
  0.71964E-02
  0.13889E-01
  0.14876E-01
  0.49571E-02
  0.50420E-02
  0.54237E-02
 -0.29741E-01
 -0.21388E-01
 -0.21215E-01
 -0.15586E-01
 -0.60998E-02
  0.15148E-01
  0.45710E-02
  0.45507E-02
  0.42748E-02
 -0.49548E-03
  0.21614E-02
  0.16494E-01
  0.30739E-02
  0.64030E-02
  0.34313E-02
  0.57889E-02
  0.74835E-02
 -0.45395E-01
 -0.33154E-01
 -0.21870E-01
 -0.24517E-01
 -0.13341E-01
  0.88751E-02
  0.54155E-02
  0.71027E-02
 -0.57651E-02
  0.44230E-02
  0.86116E-04
  0.13357E-01
  0.13370E-01
  0.13301E-01
  0.11894E-01
  0.11724E-01
  0.33149E-02
  0.13557E-02
  0.67671E-02
  0.58516E-02
  0.62459E-02
  0.51015E-02
  0.73533E-02
 -0.20120E-02
  0.18697E-01
  0.19916E-01
 -0.23642E-01
  0.37508E-02
  0.36339E-02
  0.40296E-02
  0.76675E-02
 -0.13364E-01
 -0.90536E-02
  0.19281E-01
  0.20636E-01
  0.19524E-01
  0.20667E-01
  0.55964E-02
  0.13776E-01
  0.13556E-01
  0.14107E-01
  0.13907E-01
  0.14412E-01
 -0.15199E-01
  0.10025E-01
  0.10891E-01
  0.69320E-02
  0.67880E-02
 -0.39722E-01
  0.16755E-01
  0.16124E-01
  0.11048E-01
  0.11786E-01
  0.11671E-01
  0.12409E-01
  0.12321E-01
  0.12928E-01
  0.12897E-01
  0.13349E-01
  0.13368E-01
  0.13641E-01
  0.13685E-01
  0.13817E-01
  0.13925E-01
  0.13917E-01
  0.13802E-01
  0.13647E-01
  0.71106E-02
  0.15333E-01
  0.16275E-01
  0.15610E-01
  0.16873E-01
  0.17662E-01
  0.19266E-01
  0.40747E-02
  0.12778E-01
  0.71578E-02
  0.12967E-01
  0.14090E-01
  0.13968E-01
  0.14189E-01
  0.67720E-02
  0.67394E-02
  0.47078E-02
  0.10486E-01
  0.13148E-01
  0.69685E-02
  0.14860E-01
  0.86736E-02
  0.84226E-02
  0.79372E-02
 -0.52346E-02
  0.84869E-02
 -0.59650E-02
 -0.74758E-02
 -0.62526E-01
 -0.58616E-01
 -0.58088E-01
  0.20103E-01
 -0.26497E-01
 -0.13373E-01
  0.61574E-02
 -0.38129E-01
 -0.14305E-01
 -0.93702E-02
 -0.80193E-02
 -0.11492E-01
  0.11936E-01
  0.85736E-02
  0.94451E-02
  0.10402E-01
  0.38481E-02
  0.42714E-02
  0.32244E-02
 -0.12316E-01
 -0.35517E-02
 -0.88306E-02
 -0.52463E-02
 -0.10177E-01
 -0.82735E-02
  0.14258E-01
  0.14687E-01
  0.14841E-01
  0.15066E-01
  0.15226E-01
  0.14971E-01
  0.15403E-01
  0.15524E-01
  0.13996E-01
  0.65807E-02
  0.54192E-02
  0.50999E-02
  0.52974E-02
  0.11390E-01
  0.10021E-01
  0.95412E-02
  0.82222E-02
  0.36160E-02
  0.35600E-02
  0.27020E-02
  0.37573E-02
  0.13567E-01
  0.13258E-01
  0.74359E-02
  0.19930E-01
 -0.38483E-01
 -0.28537E-01
 -0.31387E-03
 -0.34949E-02
  0.24565E-02
 -0.10057E-01
  0.74782E-02
  0.69180E-02
 -0.18917E-01
  0.98018E-02
  0.48837E-02
  0.45656E-02
  0.36214E-02
  0.28973E-02
  0.15966E-02
  0.20960E-02
  0.33827E-02
  0.28999E-02
  0.41147E-02
  0.55886E-02
  0.70397E-02
  0.44089E-02
 -0.24312E-01
 -0.22982E-01
 -0.25657E-01
  0.65800E-02
  0.70946E-02
 -0.13377E-01
 -0.10048E-01
 -0.18663E-01
  0.18324E-01
  0.18517E-01
  0.18081E-01
  0.44385E-02
  0.48800E-02
 -0.53669E-02
 -0.68286E-02
 -0.45001E-02
  0.52760E-02
  0.52714E-02
  0.44187E-02
  0.10538E-02
 -0.35201E-02
 -0.74690E-03
 -0.40073E-02
 -0.18868E-02
 -0.30098E-02
 -0.81600E-03
  0.13284E-02
  0.20174E-02
 -0.13638E-02
  0.40547E-02
  0.15490E-02
 -0.30968E-02
 -0.55850E-02
 -0.77380E-02
  0.13174E-01
  0.12305E-01
  0.39765E-02
  0.50046E-02
 -0.34852E-02
 -0.63832E-02
 -0.38552E-02
 -0.36368E-02
  0.47888E-02
  0.16305E-01
  0.16085E-01
  0.15938E-01
  0.39710E-02
 -0.21233E-01
 -0.22637E-01
  0.42242E-02
 -0.11383E-01
  0.47830E-02
  0.46426E-02
  0.39822E-02
  0.16970E-02
  0.18750E-02
  0.13819E-04
  0.73567E-02
  0.15084E-01
 -0.31957E-02
 -0.50085E-02
  0.21497E-03
 -0.57182E-02
  0.86312E-02
  0.12297E-01
  0.11978E-01
  0.86123E-02
 -0.16733E-01
  0.22411E-01
  0.75865E-02
  0.12912E-01
  0.60497E-02
  0.65444E-02
  0.71671E-02
  0.70829E-02
  0.14097E-01
  0.42914E-02
  0.45854E-02
 -0.32551E-02
  0.58947E-02
  0.28504E-02
  0.13421E-01
  0.13677E-01
  0.13737E-01
 -0.17735E-01
 -0.44002E-02
 -0.51194E-02
  0.52028E-02
  0.49523E-02
  0.52859E-02
  0.16124E-01
  0.15546E-01
  0.58655E-03
  0.42036E-02
 -0.24396E-01
  0.78966E-02
  0.84750E-02
  0.73454E-02
  0.13779E-01
  0.10764E-01
  0.91811E-02
  0.12721E-01
  0.14537E-01
  0.15930E-01
 -0.66055E-02
  0.84040E-03
  0.75523E-02
  0.16050E-01
 -0.54404E-01
 -0.51965E-01
 -0.52125E-01
  0.76444E-02
  0.76773E-02
  0.15524E-01
 -0.68249E-02
 -0.66734E-02
  0.49057E-02
  0.46716E-02
  0.46401E-02
  0.46519E-02
 -0.12592E-01
 -0.97498E-02
  0.38629E-02
  0.29195E-02
  0.81609E-02
  0.76660E-02
  0.91066E-02
  0.41599E-02
  0.43212E-02
  0.14918E-01
  0.15670E-01
  0.15743E-01
  0.15679E-01
  0.15827E-01
  0.15894E-01
  0.15894E-01
  0.15905E-01
  0.15888E-01
  0.67013E-02
  0.44651E-02
 -0.76651E-02
  0.46665E-02
  0.48102E-02
  0.50316E-02
  0.10107E-01
  0.41081E-02
  0.37288E-02
  0.59800E-02
  0.14259E-01
  0.22803E-02
 -0.10913E-01
  0.11254E-01
  0.18998E-02
 -0.10647E-01
 -0.65007E-02
  0.63117E-02
  0.65785E-02
  0.15926E-01
  0.15953E-01
 -0.49278E-01
 -0.92665E-02
 -0.84314E-02
 -0.20427E-02
  0.57075E-02
  0.14768E-01
 -0.13913E-01
 -0.85224E-02
 -0.86206E-02
 -0.44452E-02
 -0.45134E-02
 -0.72408E-02
 -0.47787E-01
 -0.40512E-01
  0.14696E-01
  0.14787E-01
  0.40321E-02
  0.30442E-02
  0.12179E-01
  0.41008E-02
  0.62644E-02
  0.13771E-01
  0.15649E-01
  0.51396E-02
  0.15955E-01
  0.36719E-02
  0.77888E-02
  0.10995E-01
  0.10031E-01
  0.44850E-02
  0.51810E-02
  0.49040E-02
  0.57986E-02
  0.57407E-02
  0.65171E-02
  0.61325E-02
 -0.22488E-01
  0.60162E-02
  0.67276E-02
  0.15071E-01
 -0.18189E-01
  0.71963E-02
  0.51367E-02
  0.53372E-02
  0.30297E-02
  0.14450E-01
  0.82761E-02
  0.86279E-02
  0.87692E-02
  0.89238E-02
  0.12840E-01
 -0.11344E-02
  0.12299E-01
  0.53652E-02
 -0.30583E-01
  0.15108E-01
  0.13763E-01
  0.15802E-01
  0.48312E-02
  0.51393E-02
  0.36964E-02
  0.44721E-02
  0.48687E-02
  0.47105E-02
  0.50791E-02
  0.46596E-02
  0.49631E-02
  0.54507E-02
  0.14025E-01
  0.18806E-01
  0.20383E-01
  0.17436E-01
  0.48341E-02
  0.77114E-02
  0.11234E-01
  0.12096E-01
  0.12790E-01
 -0.80263E-02
 -0.49821E-02
 -0.59063E-01
 -0.12501E-01
 -0.15270E-02
 -0.19219E-01
  0.14174E-01
  0.42703E-02
  0.44849E-02
  0.69747E-02
 -0.13388E-02
  0.74876E-02
  0.22065E-01
 -0.16012E-01
  0.14540E-01
 -0.32913E-02
  0.21555E-01
  0.21903E-01
  0.19767E-01
  0.20463E-01
  0.22292E-01
  0.20481E-01
  0.19026E-01
 -0.56114E-02
  0.98730E-02
  0.89132E-02
  0.48153E-02
  0.13738E-01
  0.63695E-02
  0.81281E-02
  0.97983E-02
  0.32523E-02
  0.73550E-03
  0.10281E-01
 -0.13348E-01
 -0.51768E-02
 -0.46147E-01
 -0.42757E-01
 -0.36021E-01
 -0.50170E-01
 -0.29220E-01
  0.43126E-02
  0.14183E-01
  0.13118E-01
  0.15863E-01
  0.16876E-01
  0.18396E-01
  0.17351E-01
 -0.17240E-01
  0.13428E-02
  0.10911E-01
  0.72513E-02
  0.47020E-02
  0.14391E-01
  0.21971E-01
  0.69615E-02
 -0.37848E-02
  0.15038E-01
  0.13888E-01
  0.15048E-01
  0.14652E-01
 -0.27443E-01
  0.50835E-02
  0.33562E-03
 -0.32069E-01
 -0.25645E-01
  0.15735E-01
  0.15582E-01
  0.15456E-01
  0.13699E-01
 -0.67145E-02
  0.26782E-02
  0.23954E-01
  0.24797E-01
  0.12806E-02
  0.17134E-01
  0.13172E-01
 -0.23151E-01
  0.35193E-02
  0.24921E-02
  0.14048E-02
 -0.23150E-03
  0.58848E-03
  0.29066E-02
  0.78273E-02
  0.86176E-02
  0.74700E-02
  0.88800E-02
  0.94908E-02
  0.14839E-01
  0.16466E-01
  0.18096E-01
  0.17997E-01
 -0.56909E-02
 -0.10130E-01
 -0.12075E-01
  0.47834E-02
  0.48632E-02
  0.45612E-02
  0.54433E-02
  0.15693E-01
  0.46851E-02
 -0.22751E-01
 -0.80846E-02
 -0.92622E-02
 -0.16087E-01
 -0.13542E-01
  0.13898E-01
  0.13650E-01
  0.13438E-01
  0.13556E-01
  0.13272E-01
  0.13493E-01
  0.16686E-01
 -0.11167E-02
  0.11238E-02
  0.15444E-01
  0.15434E-01
  0.81577E-02
  0.17967E-02
  0.33433E-02
  0.15656E-01
  0.10010E-01
  0.11341E-01
 -0.97829E-02
  0.24178E-02
 -0.86223E-02
 -0.15913E-01
  0.15885E-01
 -0.33596E-02
  0.54781E-02
  0.53737E-02
  0.60327E-02
  0.64028E-02
 -0.28061E-02
  0.54518E-02
  0.14304E-01
  0.14302E-01
  0.17836E-02
  0.79250E-02
  0.17294E-01
 -0.63278E-02
  0.18765E-01
  0.20158E-01
 -0.14591E-01
  0.13877E-01
  0.14720E-01
  0.14949E-01
  0.15185E-01
  0.53995E-02
  0.15963E-01
  0.43635E-02
  0.13793E-01
  0.13166E-01
  0.13067E-01
 -0.15543E-01
 -0.21602E-01
  0.50436E-03
 -0.72595E-03
  0.22333E-02
  0.57083E-02
  0.62365E-02
 -0.30575E-03
  0.83030E-02
  0.94156E-02
  0.17652E-01
  0.66447E-02
  0.63588E-02
  0.11639E-01
  0.11335E-01
  0.12290E-01
  0.12530E-01
  0.13136E-01
  0.55965E-02
  0.90821E-02
  0.61343E-02
  0.62477E-02
  0.71960E-02
  0.45305E-02
  0.44339E-02
 -0.45709E-02
 -0.64651E-02
  0.76082E-02
  0.67800E-02
  0.81775E-02
  0.89786E-02
  0.94978E-02
  0.80629E-03
  0.11580E-01
  0.88295E-02
  0.13379E-01
  0.13484E-01
  0.19740E-01
 -0.93998E-02
  0.53804E-02
  0.46253E-02
  0.15856E-01
 -0.11941E-01
  0.55466E-02
  0.64505E-02
  0.69486E-02
  0.67257E-02
  0.67692E-02
  0.62407E-02
  0.61669E-02
  0.59946E-02
 -0.62319E-01
 -0.36602E-02
  0.57428E-02
  0.15861E-01
  0.15545E-01
  0.16057E-01
  0.87925E-02
  0.56009E-02
  0.43708E-02
  0.15807E-01
  0.13826E-01
  0.88143E-02
  0.89011E-02
  0.82102E-02
 -0.34292E-02
 -0.58725E-02
 -0.74499E-02
 -0.37583E-02
  0.18790E-01
 -0.87207E-02
 -0.85394E-02
 -0.36181E-02
 -0.36958E-02
 -0.36787E-02
  0.44970E-02
  0.57454E-02
 -0.25075E-02
 -0.21921E-02
 -0.25611E-02
  0.74277E-02
  0.65525E-02
  0.75780E-02
  0.66354E-02
  0.14637E-01
  0.31330E-03
  0.70634E-02
  0.17619E-01
  0.41326E-02
  0.54740E-02
  0.15400E-02
 -0.72919E-03
 -0.11957E-02
 -0.12185E-02
 -0.18889E-02
  0.51260E-02
  0.50182E-02
  0.46665E-02
  0.29392E-02
  0.40385E-02
  0.55215E-02
  0.59733E-02
  0.78626E-02
  0.38108E-02
  0.32876E-02
 -0.23425E-01
  0.39169E-02
  0.41053E-02
  0.11608E-01
  0.71415E-02
 -0.11445E-02
 -0.22890E-03
  0.50944E-02
 -0.99709E-02
 -0.35504E-02
  0.45060E-02
  0.58231E-02
 -0.36388E-03
 -0.39815E-02
  0.56738E-03
  0.70923E-02
 -0.72813E-02
 -0.82246E-02
  0.20627E-04
  0.42747E-02
 -0.24917E-02
  0.10148E-01
 -0.81238E-02
  0.50505E-02
 -0.51294E-02
 -0.79258E-02
 -0.40968E-02
  0.58335E-02
 -0.49329E-02
 -0.12338E-01
 -0.53166E-02
  0.72509E-02
 -0.85469E-03
 -0.65313E-02
 -0.23938E-01
  0.74515E-02
  0.74672E-02
  0.11724E-01
  0.29574E-02
  0.39203E-02
 -0.10664E-01
 -0.96154E-03
  0.53150E-02
  0.47386E-02
 -0.47089E-02
  0.16514E-02
  0.78942E-02
  0.58877E-02
 -0.12642E-02
 -0.25096E-01
 -0.22444E-01
  0.45350E-02
 -0.29665E-02
  0.55311E-02
  0.48574E-02
 -0.71211E-02
  0.30910E-02
 -0.44352E-02
 -0.16105E-01
  0.72305E-02
 -0.17960E-02
  0.15466E-01
 -0.32418E-04
 -0.24038E-01
  0.12539E-01
 -0.34576E-02
  0.49048E-02
  0.47741E-02
  0.87601E-02
 -0.54564E-02
  0.49780E-02
  0.15882E-01
 -0.59005E-02
  0.19044E-01
  0.87518E-02
  0.24070E-01
  0.19203E-01
  0.80506E-02
  0.17604E-01
 -0.22298E-01
 -0.23692E-01
  0.97478E-02
  0.12685E-01
  0.79302E-02
  0.17023E-01
 -0.59260E-02
  0.65945E-02
 -0.35362E-01
 -0.44482E-01
 -0.10323E-01
  0.12767E-01
 -0.86639E-02
 -0.47488E-01
 -0.78549E-02
  0.14995E-02
  0.40594E-02
 -0.45620E-01
 -0.46163E-01