# vtk DataFile Version 2.0
Unstructured Grid UFVM-ECOMOD
ASCII
DATASET UNSTRUCTURED_GRID
 POINTS         1724  float
  0.00000E+00  0.00000E+00  0.00000E+00
  0.40000E+01  0.00000E+00  0.00000E+00
  0.40000E+01  0.20000E+01  0.00000E+00
  0.00000E+00  0.20000E+01  0.00000E+00
  0.15750E+01  0.10287E+01  0.00000E+00
  0.15677E+01  0.97091E+00  0.00000E+00
  0.15461E+01  0.91674E+00  0.00000E+00
  0.15118E+01  0.86961E+00  0.00000E+00
  0.14667E+01  0.83248E+00  0.00000E+00
  0.14138E+01  0.80767E+00  0.00000E+00
  0.13563E+01  0.79675E+00  0.00000E+00
  0.12979E+01  0.80041E+00  0.00000E+00
  0.12423E+01  0.81842E+00  0.00000E+00
  0.11929E+01  0.84963E+00  0.00000E+00
  0.11529E+01  0.89210E+00  0.00000E+00
  0.11247E+01  0.94315E+00  0.00000E+00
  0.11102E+01  0.99958E+00  0.00000E+00
  0.11102E+01  0.10578E+01  0.00000E+00
  0.11247E+01  0.11143E+01  0.00000E+00
  0.11529E+01  0.11653E+01  0.00000E+00
  0.11929E+01  0.12078E+01  0.00000E+00
  0.12423E+01  0.12390E+01  0.00000E+00
  0.12979E+01  0.12570E+01  0.00000E+00
  0.13563E+01  0.12607E+01  0.00000E+00
  0.14138E+01  0.12497E+01  0.00000E+00
  0.14667E+01  0.12249E+01  0.00000E+00
  0.15118E+01  0.11878E+01  0.00000E+00
  0.15461E+01  0.11407E+01  0.00000E+00
  0.15677E+01  0.10865E+01  0.00000E+00
  0.10000E+00  0.00000E+00  0.00000E+00
  0.20000E+00  0.00000E+00  0.00000E+00
  0.30000E+00  0.00000E+00  0.00000E+00
  0.40000E+00  0.00000E+00  0.00000E+00
  0.50000E+00  0.00000E+00  0.00000E+00
  0.60000E+00  0.00000E+00  0.00000E+00
  0.70000E+00  0.00000E+00  0.00000E+00
  0.80000E+00  0.00000E+00  0.00000E+00
  0.90000E+00  0.00000E+00  0.00000E+00
  0.10000E+01  0.00000E+00  0.00000E+00
  0.11000E+01  0.00000E+00  0.00000E+00
  0.12000E+01  0.00000E+00  0.00000E+00
  0.13000E+01  0.00000E+00  0.00000E+00
  0.14000E+01  0.00000E+00  0.00000E+00
  0.15000E+01  0.00000E+00  0.00000E+00
  0.16000E+01  0.00000E+00  0.00000E+00
  0.17000E+01  0.00000E+00  0.00000E+00
  0.18000E+01  0.00000E+00  0.00000E+00
  0.19000E+01  0.00000E+00  0.00000E+00
  0.20000E+01  0.00000E+00  0.00000E+00
  0.21000E+01  0.00000E+00  0.00000E+00
  0.22000E+01  0.00000E+00  0.00000E+00
  0.23000E+01  0.00000E+00  0.00000E+00
  0.24000E+01  0.00000E+00  0.00000E+00
  0.25000E+01  0.00000E+00  0.00000E+00
  0.26000E+01  0.00000E+00  0.00000E+00
  0.27000E+01  0.00000E+00  0.00000E+00
  0.28000E+01  0.00000E+00  0.00000E+00
  0.29000E+01  0.00000E+00  0.00000E+00
  0.30000E+01  0.00000E+00  0.00000E+00
  0.31000E+01  0.00000E+00  0.00000E+00
  0.32000E+01  0.00000E+00  0.00000E+00
  0.33000E+01  0.00000E+00  0.00000E+00
  0.34000E+01  0.00000E+00  0.00000E+00
  0.35000E+01  0.00000E+00  0.00000E+00
  0.36000E+01  0.00000E+00  0.00000E+00
  0.37000E+01  0.00000E+00  0.00000E+00
  0.38000E+01  0.00000E+00  0.00000E+00
  0.39000E+01  0.00000E+00  0.00000E+00
  0.40000E+01  0.10000E+00  0.00000E+00
  0.40000E+01  0.20000E+00  0.00000E+00
  0.40000E+01  0.30000E+00  0.00000E+00
  0.40000E+01  0.40000E+00  0.00000E+00
  0.40000E+01  0.50000E+00  0.00000E+00
  0.40000E+01  0.60000E+00  0.00000E+00
  0.40000E+01  0.70000E+00  0.00000E+00
  0.40000E+01  0.80000E+00  0.00000E+00
  0.40000E+01  0.90000E+00  0.00000E+00
  0.40000E+01  0.10000E+01  0.00000E+00
  0.40000E+01  0.11000E+01  0.00000E+00
  0.40000E+01  0.12000E+01  0.00000E+00
  0.40000E+01  0.13000E+01  0.00000E+00
  0.40000E+01  0.14000E+01  0.00000E+00
  0.40000E+01  0.15000E+01  0.00000E+00
  0.40000E+01  0.16000E+01  0.00000E+00
  0.40000E+01  0.17000E+01  0.00000E+00
  0.40000E+01  0.18000E+01  0.00000E+00
  0.40000E+01  0.19000E+01  0.00000E+00
  0.39000E+01  0.20000E+01  0.00000E+00
  0.38000E+01  0.20000E+01  0.00000E+00
  0.37000E+01  0.20000E+01  0.00000E+00
  0.36000E+01  0.20000E+01  0.00000E+00
  0.35000E+01  0.20000E+01  0.00000E+00
  0.34000E+01  0.20000E+01  0.00000E+00
  0.33000E+01  0.20000E+01  0.00000E+00
  0.32000E+01  0.20000E+01  0.00000E+00
  0.31000E+01  0.20000E+01  0.00000E+00
  0.30000E+01  0.20000E+01  0.00000E+00
  0.29000E+01  0.20000E+01  0.00000E+00
  0.28000E+01  0.20000E+01  0.00000E+00
  0.27000E+01  0.20000E+01  0.00000E+00
  0.26000E+01  0.20000E+01  0.00000E+00
  0.25000E+01  0.20000E+01  0.00000E+00
  0.24000E+01  0.20000E+01  0.00000E+00
  0.23000E+01  0.20000E+01  0.00000E+00
  0.22000E+01  0.20000E+01  0.00000E+00
  0.21000E+01  0.20000E+01  0.00000E+00
  0.20000E+01  0.20000E+01  0.00000E+00
  0.19000E+01  0.20000E+01  0.00000E+00
  0.18000E+01  0.20000E+01  0.00000E+00
  0.17000E+01  0.20000E+01  0.00000E+00
  0.16000E+01  0.20000E+01  0.00000E+00
  0.15000E+01  0.20000E+01  0.00000E+00
  0.14000E+01  0.20000E+01  0.00000E+00
  0.13000E+01  0.20000E+01  0.00000E+00
  0.12000E+01  0.20000E+01  0.00000E+00
  0.11000E+01  0.20000E+01  0.00000E+00
  0.10000E+01  0.20000E+01  0.00000E+00
  0.90000E+00  0.20000E+01  0.00000E+00
  0.80000E+00  0.20000E+01  0.00000E+00
  0.70000E+00  0.20000E+01  0.00000E+00
  0.60000E+00  0.20000E+01  0.00000E+00
  0.50000E+00  0.20000E+01  0.00000E+00
  0.40000E+00  0.20000E+01  0.00000E+00
  0.30000E+00  0.20000E+01  0.00000E+00
  0.20000E+00  0.20000E+01  0.00000E+00
  0.10000E+00  0.20000E+01  0.00000E+00
  0.00000E+00  0.19000E+01  0.00000E+00
  0.00000E+00  0.18000E+01  0.00000E+00
  0.00000E+00  0.17000E+01  0.00000E+00
  0.00000E+00  0.16000E+01  0.00000E+00
  0.00000E+00  0.15000E+01  0.00000E+00
  0.00000E+00  0.14000E+01  0.00000E+00
  0.00000E+00  0.13000E+01  0.00000E+00
  0.00000E+00  0.12000E+01  0.00000E+00
  0.00000E+00  0.11000E+01  0.00000E+00
  0.00000E+00  0.10000E+01  0.00000E+00
  0.00000E+00  0.90000E+00  0.00000E+00
  0.00000E+00  0.80000E+00  0.00000E+00
  0.00000E+00  0.70000E+00  0.00000E+00
  0.00000E+00  0.60000E+00  0.00000E+00
  0.00000E+00  0.50000E+00  0.00000E+00
  0.00000E+00  0.40000E+00  0.00000E+00
  0.00000E+00  0.30000E+00  0.00000E+00
  0.00000E+00  0.20000E+00  0.00000E+00
  0.00000E+00  0.10000E+00  0.00000E+00
  0.15713E+01  0.99981E+00  0.00000E+00
  0.15569E+01  0.94382E+00  0.00000E+00
  0.15290E+01  0.89318E+00  0.00000E+00
  0.14892E+01  0.85104E+00  0.00000E+00
  0.14402E+01  0.82007E+00  0.00000E+00
  0.13850E+01  0.80221E+00  0.00000E+00
  0.13271E+01  0.79858E+00  0.00000E+00
  0.12701E+01  0.80941E+00  0.00000E+00
  0.12176E+01  0.83402E+00  0.00000E+00
  0.11729E+01  0.87086E+00  0.00000E+00
  0.11388E+01  0.91762E+00  0.00000E+00
  0.11175E+01  0.97136E+00  0.00000E+00
  0.11102E+01  0.10287E+01  0.00000E+00
  0.11175E+01  0.10860E+01  0.00000E+00
  0.11388E+01  0.11398E+01  0.00000E+00
  0.11729E+01  0.11865E+01  0.00000E+00
  0.12176E+01  0.12234E+01  0.00000E+00
  0.12701E+01  0.12480E+01  0.00000E+00
  0.13271E+01  0.12588E+01  0.00000E+00
  0.13850E+01  0.12552E+01  0.00000E+00
  0.14402E+01  0.12373E+01  0.00000E+00
  0.14892E+01  0.12064E+01  0.00000E+00
  0.15290E+01  0.11642E+01  0.00000E+00
  0.15569E+01  0.11136E+01  0.00000E+00
  0.15713E+01  0.10576E+01  0.00000E+00
  0.15994E+01  0.10133E+01  0.00000E+00
  0.15863E+01  0.11089E+01  0.00000E+00
  0.25478E+01  0.10053E+00  0.00000E+00
  0.25434E+01  0.19142E+01  0.00000E+00
  0.11238E+01  0.89266E+00  0.00000E+00
  0.11061E+01  0.11423E+01  0.00000E+00
  0.15575E+01  0.89126E+00  0.00000E+00
  0.10894E+01  0.97917E+00  0.00000E+00
  0.15393E+01  0.11910E+01  0.00000E+00
  0.11627E+01  0.12175E+01  0.00000E+00
  0.14962E+01  0.82262E+00  0.00000E+00
  0.29512E+01  0.95010E-01  0.00000E+00
  0.29494E+01  0.19117E+01  0.00000E+00
  0.39186E+01  0.10466E+01  0.00000E+00
  0.11913E+01  0.82197E+00  0.00000E+00
  0.12788E+01  0.78594E+00  0.00000E+00
  0.21500E+01  0.86600E-01  0.00000E+00
  0.21472E+01  0.19005E+01  0.00000E+00
  0.14041E+01  0.78007E+00  0.00000E+00
  0.14641E+01  0.12550E+01  0.00000E+00
  0.13764E+01  0.12826E+01  0.00000E+00
  0.99450E-01  0.63780E+00  0.00000E+00
  0.92450E-01  0.13422E+01  0.00000E+00
  0.12473E+01  0.12677E+01  0.00000E+00
  0.65677E+00  0.19154E+01  0.00000E+00
  0.86110E-01  0.10467E+01  0.00000E+00
  0.75000E+00  0.86600E-01  0.00000E+00
  0.33379E+01  0.88030E-01  0.00000E+00
  0.33490E+01  0.19201E+01  0.00000E+00
  0.18500E+01  0.86600E-01  0.00000E+00
  0.18441E+01  0.19006E+01  0.00000E+00
  0.38922E+01  0.64055E+00  0.00000E+00
  0.39154E+01  0.13500E+01  0.00000E+00
  0.10564E+01  0.85180E-01  0.00000E+00
  0.94817E+00  0.19249E+01  0.00000E+00
  0.15421E+01  0.85450E-01  0.00000E+00
  0.15479E+01  0.19161E+01  0.00000E+00
  0.12386E+01  0.19130E+01  0.00000E+00
  0.45294E+00  0.85030E-01  0.00000E+00
  0.86890E-01  0.16531E+01  0.00000E+00
  0.36495E+01  0.78620E-01  0.00000E+00
  0.36510E+01  0.19107E+01  0.00000E+00
  0.10846E+01  0.10423E+01  0.00000E+00
  0.15860E+01  0.94842E+00  0.00000E+00
  0.13392E+01  0.77093E+00  0.00000E+00
  0.13108E+01  0.12864E+01  0.00000E+00
  0.87300E-01  0.35008E+00  0.00000E+00
  0.34468E+00  0.19176E+01  0.00000E+00
  0.39135E+01  0.16499E+01  0.00000E+00
  0.39252E+01  0.34254E+00  0.00000E+00
  0.13680E+01  0.88360E-01  0.00000E+00
  0.88350E-01  0.84594E+00  0.00000E+00
  0.23513E+01  0.77830E-01  0.00000E+00
  0.23488E+01  0.19154E+01  0.00000E+00
  0.27481E+01  0.80910E-01  0.00000E+00
  0.31480E+01  0.84140E-01  0.00000E+00
  0.31513E+01  0.19149E+01  0.00000E+00
  0.27502E+01  0.19198E+01  0.00000E+00
  0.39134E+01  0.85000E+00  0.00000E+00
  0.25071E+00  0.86200E-01  0.00000E+00
  0.91130E-01  0.18412E+01  0.00000E+00
  0.38461E+01  0.84360E-01  0.00000E+00
  0.38408E+01  0.19092E+01  0.00000E+00
  0.97440E-01  0.15849E+00  0.00000E+00
  0.15988E+01  0.10458E+01  0.00000E+00
  0.16261E+01  0.10305E+01  0.00000E+00
  0.16281E+01  0.99836E+00  0.00000E+00
  0.16554E+01  0.10148E+01  0.00000E+00
  0.16578E+01  0.98164E+00  0.00000E+00
  0.16863E+01  0.99914E+00  0.00000E+00
  0.16884E+01  0.96239E+00  0.00000E+00
  0.17222E+01  0.98417E+00  0.00000E+00
  0.17231E+01  0.93952E+00  0.00000E+00
  0.17605E+01  0.96435E+00  0.00000E+00
  0.17576E+01  0.10098E+01  0.00000E+00
  0.17991E+01  0.98970E+00  0.00000E+00
  0.17625E+01  0.91931E+00  0.00000E+00
[...]
 POINT_DATA         1724
  
 SCALARS WL      float 1
 LOOKUP_TABLE default
  0.22588E-01
  0.65139E-04
  0.33673E-02
  0.30766E-01
 -0.34858E-01
 -0.26525E-01
 -0.16647E-01
 -0.66635E-02
  0.20733E-03
 -0.14261E-04
  0.13027E-02
 -0.97705E-02
 -0.62513E-02
  0.49261E-02
  0.23061E-01
  0.35584E-01
  0.42920E-01
  0.43361E-01
  0.37105E-01
  0.25660E-01
  0.80008E-02
 -0.12459E-01
 -0.33794E-01
 -0.52776E-01
 -0.57660E-01
 -0.53351E-01
 -0.50991E-01
 -0.46258E-01
 -0.39972E-01
  0.22267E-01
  0.21779E-01
  0.21195E-01
  0.20483E-01
  0.19550E-01
  0.18331E-01
  0.16799E-01
  0.14940E-01
  0.12585E-01
  0.97243E-02
  0.69345E-02
  0.39240E-02
  0.96395E-03
 -0.10307E-02
 -0.21046E-02
 -0.23045E-02
 -0.17973E-02
 -0.10320E-02
 -0.12011E-04
  0.12251E-02
  0.24839E-02
  0.36124E-02
  0.46722E-02
  0.49728E-02
  0.47224E-02
  0.38372E-02
  0.27209E-02
  0.15171E-02
  0.23564E-03
 -0.71609E-03
 -0.14391E-02
 -0.19043E-02
 -0.18547E-02
 -0.14999E-02
 -0.76683E-03
 -0.15437E-03
  0.48786E-04
  0.25020E-03
  0.27625E-03
  0.00000E+00
  0.00000E+00
  0.00000E+00
  0.00000E+00
  0.00000E+00
  0.00000E+00
  0.00000E+00
  0.00000E+00
  0.00000E+00
  0.00000E+00
  0.00000E+00
  0.00000E+00
  0.00000E+00
  0.00000E+00
  0.00000E+00
  0.00000E+00
  0.00000E+00
  0.00000E+00
  0.00000E+00
  0.56251E-02
  0.93389E-02
  0.12973E-01
  0.15721E-01
  0.17701E-01
  0.18841E-01
  0.18555E-01
  0.17368E-01
  0.15690E-01
  0.14249E-01
  0.13832E-01
  0.14820E-01
  0.16740E-01
  0.19187E-01
  0.21150E-01
  0.22325E-01
  0.22685E-01
  0.22429E-01
  0.21655E-01
  0.20398E-01
  0.18782E-01
  0.16946E-01
  0.15184E-01
  0.13901E-01
  0.13513E-01
  0.14229E-01
  0.16047E-01
  0.18597E-01
  0.21467E-01
  0.24373E-01
  0.27119E-01
  0.29486E-01
  0.31441E-01
  0.32946E-01
  0.33962E-01
  0.34292E-01
  0.33959E-01
  0.33047E-01
  0.31770E-01
  0.30523E-01
  0.30146E-01
  0.29710E-01
  0.29157E-01
  0.28724E-01
  0.28139E-01
  0.27637E-01
  0.27147E-01
  0.26679E-01
  0.26211E-01
  0.25729E-01
  0.25246E-01
  0.24723E-01
  0.24249E-01
  0.23802E-01
  0.23409E-01
  0.23086E-01
  0.22843E-01
  0.22682E-01
 -0.31204E-01
 -0.21518E-01
 -0.11328E-01
 -0.19361E-02
 -0.18390E-03
  0.17877E-02
 -0.41721E-02
 -0.11812E-01
 -0.28851E-02
  0.14654E-01
  0.30125E-01
  0.40583E-01
  0.43900E-01
  0.41486E-01
  0.32350E-01
  0.17117E-01
 -0.12970E-02
 -0.22531E-01
 -0.44701E-01
 -0.56386E-01
 -0.56189E-01
 -0.51879E-01
 -0.49495E-01
 -0.42739E-01
 -0.37619E-01
 -0.32970E-01
 -0.41269E-01
  0.44076E-02
  0.20277E-01
  0.28134E-01
  0.34800E-01
 -0.13320E-01
  0.41606E-01
 -0.50505E-01
  0.15813E-01
 -0.13456E-02
  0.25014E-03
  0.13799E-01
 -0.45854E-02
  0.33225E-02
 -0.98349E-02
  0.29199E-02
  0.22020E-01
  0.89887E-03
 -0.52484E-01
 -0.50364E-01
  0.24234E-01
  0.28004E-01
 -0.13124E-01
  0.32176E-01
  0.26383E-01
  0.15984E-01
 -0.12076E-02
  0.18665E-01
 -0.41690E-03
  0.17418E-01
 -0.45252E-02
  0.21059E-02
  0.83189E-02
  0.25807E-01
 -0.19197E-02
  0.13246E-01
  0.17389E-01
  0.20085E-01
  0.29991E-01
  0.17794E-03
  0.14451E-01
  0.43494E-01
 -0.23289E-01
 -0.73650E-03
 -0.34004E-01
  0.22999E-01
  0.34060E-01
  0.58938E-02
  0.43985E-03
 -0.12886E-03
  0.25363E-01
  0.48512E-02
  0.22622E-01
  0.23141E-02
 -0.11999E-02
  0.16631E-01
  0.15273E-01
 -0.68917E-02
  0.21555E-01
  0.31175E-01
  0.43218E-03
  0.78949E-02
  0.22444E-01
 -0.36373E-01
 -0.35295E-01
 -0.32108E-01
 -0.34787E-01
 -0.31382E-01
 -0.34022E-01
 -0.29705E-01
 -0.32242E-01
 -0.26329E-01
 -0.28805E-01
 -0.33021E-01
 -0.29242E-01
 -0.22167E-01
 -0.30726E-01
 -0.27017E-01
 -0.24932E-01
 -0.22420E-01
 -0.17516E-01
 -0.16757E-01
 -0.22626E-01
 -0.18461E-01
 -0.25170E-01
 -0.22114E-01
 -0.28831E-01
 -0.25269E-01
 -0.29830E-01
 -0.23714E-01
 -0.10983E-01
 -0.24630E-01
 -0.16852E-01
 -0.15177E-01
 -0.90345E-02
 -0.29352E-01
 -0.67028E-02
 -0.31304E-02
 -0.32898E-02
 -0.23471E-03
  0.64924E-03
  0.17697E-02
  0.77105E-03
  0.92775E-03
  0.34008E-02
  0.10682E-02
 -0.27479E-02
 -0.39918E-02
  0.20378E-02
 -0.26621E-02
 -0.10147E-01
 -0.70156E-02
  0.70049E-03
 -0.20519E-02
  0.43694E-02
  0.23645E-02
 -0.28258E-02
  0.12829E-02
  0.44503E-02
 -0.13805E-02
  0.14519E-02
  0.14263E-02
 -0.20494E-01
  0.26706E-02
  0.47339E-02
  0.29995E-02
 -0.20470E-01
 -0.23477E-01
 -0.13691E-01
 -0.15102E-01
 -0.76901E-02
 -0.82848E-02
  0.44398E-02
  0.16135E-02
  0.77662E-02
 -0.37837E-02
 -0.13671E-01
 -0.74647E-02
 -0.10381E-01
 -0.56104E-02
 -0.64074E-02
  0.63830E-02
  0.10006E-01
 -0.33386E-02
 -0.23528E-02
 -0.17605E-01
 -0.13299E-02
  0.24514E-03
  0.16128E-03
  0.16001E-02
  0.22168E-02
  0.31405E-02
  0.42279E-02
  0.43854E-02
  0.35709E-02
  0.43830E-02
 -0.23931E-02
 -0.47107E-03
  0.11520E-02
  0.20970E-02
  0.36000E-02
 -0.31039E-02
 -0.13400E-01
  0.37038E-02
  0.43321E-02
 -0.78165E-02
  0.49749E-02
  0.80528E-02
  0.11528E-01
  0.12870E-01
  0.13927E-01
  0.35131E-02
  0.42616E-02
  0.47539E-02
  0.48584E-02
  0.38710E-02
  0.52297E-02
  0.73123E-03
  0.50980E-02
  0.53335E-02
  0.48534E-02
  0.55524E-02
  0.49375E-02
  0.60727E-02
  0.63814E-02
  0.75162E-02
  0.77568E-02
  0.93937E-02
  0.98745E-02
  0.11868E-01
  0.10938E-01
  0.13416E-01
  0.14644E-01
  0.15975E-01
  0.17581E-01
  0.18412E-01
  0.20288E-01
  0.20564E-01
  0.22556E-01
  0.22311E-01
  0.24348E-01
  0.23735E-01
  0.25648E-01
  0.24797E-01
  0.26456E-01
  0.23262E-01
  0.25519E-01
  0.26936E-01
  0.25968E-01
  0.27189E-01
  0.28323E-01
  0.28305E-01
  0.29540E-01
  0.29280E-01
  0.30541E-01
  0.30052E-01
  0.31234E-01
  0.30612E-01
  0.31648E-01
  0.30970E-01
  0.31775E-01
  0.31145E-01
  0.31655E-01
  0.31192E-01
  0.31365E-01
  0.30459E-01
  0.28914E-01
  0.31155E-01
  0.30969E-01
  0.18935E-01
  0.26324E-01
  0.25176E-01
  0.31067E-01
  0.31118E-01
  0.30560E-01
  0.30209E-01
  0.29513E-01
  0.28807E-01
  0.27933E-01
  0.26735E-01
  0.25825E-01
  0.23969E-01
  0.25567E-01
  0.24550E-01
  0.12322E-01
  0.31143E-01
  0.31271E-01
  0.31195E-01
  0.29928E-01
  0.26618E-01
  0.32649E-01
  0.23283E-01
  0.20668E-01
  0.28889E-01
  0.31578E-01
  0.31375E-01
  0.24948E-01
  0.24124E-01
  0.56478E-02
  0.20388E-01
  0.17225E-01
  0.24872E-01
  0.22399E-01
  0.25838E-01
  0.30758E-01
  0.30855E-01
  0.30107E-01
 -0.37176E-01
  0.23570E-01
  0.23328E-01
  0.22608E-01
  0.22552E-01
  0.21709E-01
  0.28051E-02
  0.31933E-01
  0.21821E-01
  0.14956E-01
 -0.44837E-02
 -0.10288E-01
  0.16110E-01
  0.16898E-01
  0.12923E-01
  0.13877E-01
  0.91463E-02
  0.10825E-01
  0.61428E-02
  0.84609E-02
  0.42362E-02
  0.84378E-03
 -0.15292E-02
  0.34304E-02
 -0.60432E-03
 -0.66179E-02
 -0.46053E-02
  0.11060E-02
 -0.16758E-02
  0.34509E-02
  0.21385E-02
 -0.37736E-02
  0.12099E-02
 -0.51014E-02
  0.43901E-03
  0.56975E-02
  0.56128E-02
  0.97757E-02
  0.10364E-01
  0.13337E-01
  0.14151E-01
  0.16373E-01
  0.17458E-01
  0.15157E-01
  0.18524E-01
  0.19941E-01
  0.20583E-01
  0.21465E-01
  0.21115E-01
  0.18510E-01
  0.61782E-02
  0.61976E-02
  0.50808E-02
  0.64501E-02
  0.22171E-01
  0.21297E-01
  0.24540E-01
  0.12177E-01
  0.20929E-01
  0.20685E-01
  0.14225E-01
  0.19570E-01
  0.18386E-01
  0.20104E-01
  0.15784E-01
  0.17947E-01
  0.11727E-01
 -0.11549E-01
 -0.12864E-01
  0.14438E-01
  0.68003E-02
  0.31935E-02
  0.47041E-02
 -0.17517E-02
  0.31870E-01
  0.68833E-02
  0.33371E-02
 -0.81333E-02
 -0.59341E-03
  0.90728E-02
  0.10747E-01
  0.11750E-01
  0.12224E-01
  0.12426E-01
  0.11821E-01
  0.11410E-01
  0.11822E-01
  0.10471E-01
  0.10647E-01
  0.10008E-01
  0.90529E-02
  0.90541E-02
  0.93783E-02
  0.73538E-02
  0.63336E-02
  0.33392E-02
  0.50476E-02
  0.39426E-03
 -0.29758E-02
  0.30583E-02
 -0.14164E-02
  0.31336E-02
 -0.28459E-02
  0.28164E-02
  0.73842E-03
  0.13489E-01
 -0.54613E-02
  0.20778E-02
  0.22559E-01
  0.21953E-01
 -0.17157E-01
  0.65409E-02
  0.14548E-01
  0.69462E-02
  0.22856E-01
  0.57809E-02
  0.18710E-02
 -0.11820E-01
 -0.15401E-01
 -0.78537E-03
  0.18066E-03
  0.73727E-02
  0.69441E-02
  0.32408E-01
  0.32289E-01
  0.13256E-01
  0.12267E-01
  0.14092E-02
  0.40187E-02
  0.20790E-03
 -0.74630E-02
 -0.20489E-01
 -0.21894E-01
 -0.92501E-02
  0.30151E-01
  0.29370E-01
 -0.11589E-02
 -0.15304E-01
 -0.15816E-02
 -0.72391E-02
 -0.27417E-02
  0.51290E-02
 -0.27919E-01
 -0.25068E-01
  0.55182E-02
  0.40781E-02
  0.46173E-02
  0.38865E-02
  0.98137E-02
  0.19880E-01
  0.19397E-01
  0.14017E-01
 -0.39623E-03
  0.20914E-01
  0.79759E-02
 -0.25778E-02
  0.48510E-02
  0.15217E-02
  0.74347E-02
 -0.13707E-01
 -0.12265E-01
  0.14703E-02
  0.20993E-01
 -0.66672E-02
 -0.16544E-01
  0.15707E-01
  0.22604E-01
  0.37153E-02
 -0.24780E-01
  0.76517E-02
  0.22114E-01
  0.29998E-02
  0.29388E-01
  0.28644E-01
  0.28698E-01
  0.27967E-01
  0.27925E-01
  0.28028E-01
  0.27327E-01
  0.22249E-05
  0.32044E-01
  0.41838E-02
  0.73109E-02
  0.11166E-01
  0.11814E-01
  0.97620E-02
  0.40769E-02
  0.13209E-01
 -0.10029E-01
  0.32913E-01
  0.32577E-01
  0.20255E-01
  0.18394E-01
  0.17861E-01
  0.23168E-01
 -0.30375E-01
 -0.28005E-01
  0.81354E-02
 -0.15536E-01
 -0.20458E-01
  0.38562E-02
  0.49163E-02
  0.16382E-02
  0.28452E-02
  0.34731E-03
 -0.62686E-03
  0.24721E-02
  0.16279E-02
  0.18991E-01
  0.17248E-01
  0.16172E-01
  0.15269E-01
  0.14250E-01
  0.13112E-01
  0.13135E-02
 -0.25574E-01
  0.12990E-01
  0.29371E-01
  0.30195E-01
  0.99716E-02
 -0.14295E-01
  0.60178E-02
  0.15093E-01
  0.10285E-01
  0.12939E-01
  0.30493E-02
  0.38590E-02
  0.57929E-02
 -0.44842E-02
  0.80157E-02
 -0.42958E-02
 -0.26964E-01
 -0.70168E-02
  0.32968E-02
  0.27364E-01
  0.26691E-01
  0.26750E-01
  0.26168E-01
 -0.39527E-02
  0.20189E-02
 -0.37789E-01
 -0.34480E-01
 -0.24770E-01
 -0.29857E-01
  0.23154E-01
  0.23733E-01
  0.90581E-02
 -0.18211E-01
 -0.20590E-01
  0.84878E-02
  0.46029E-02
  0.70708E-02
 -0.21940E-03
 -0.34275E-03
  0.10914E-03
  0.37163E-03
 -0.40099E-01
  0.31817E-01
  0.31301E-01
  0.31173E-01
  0.53409E-02
  0.52208E-02
  0.22788E-01
  0.97050E-02
  0.66110E-02
  0.73619E-02
  0.47305E-02
 -0.28286E-03
  0.70949E-03
  0.28032E-04
  0.12145E-01
  0.13526E-01
 -0.23167E-01
 -0.33340E-01
 -0.34572E-01
 -0.28414E-01
 -0.18059E-01
 -0.11962E-01
  0.87686E-02
  0.71131E-02
  0.86389E-02
 -0.41858E-03
  0.80511E-02
  0.21138E-02
  0.29373E-01
  0.30227E-01
  0.14398E-02
  0.34962E-02
  0.34565E-02
  0.40738E-02
  0.66763E-02
  0.33277E-01
  0.32700E-01
  0.33359E-01
  0.16238E-01
  0.16183E-01
  0.17103E-01
  0.28831E-01
 -0.14015E-01
 -0.15772E-01
 -0.18953E-01
  0.28477E-01
  0.30200E-01
  0.29842E-01
  0.28585E-01
  0.20384E-02
 -0.20026E-02
 -0.11631E-02
  0.10022E-01
  0.10316E-01
  0.50575E-02
  0.11343E-01
  0.63777E-02
 -0.31826E-01
 -0.39715E-01
 -0.38136E-01
  0.26032E-01
  0.25553E-01
  0.25792E-01
  0.25221E-01
  0.16856E-01
  0.21425E-01
  0.21700E-01
  0.32721E-02
  0.28074E-01
  0.26648E-01
  0.29557E-01
 -0.62250E-02
 -0.59247E-02
  0.93416E-03
  0.14670E-02
  0.61646E-03
  0.19649E-02
  0.16604E-01
  0.20170E-01
  0.22516E-01
  0.20007E-01
  0.22325E-01
 -0.19793E-02
  0.32101E-01
  0.19919E-01
  0.17520E-01
 -0.41799E-01
 -0.44022E-01
  0.24112E-02
  0.32508E-02
  0.29341E-01
  0.10206E-01
  0.11308E-01
 -0.20079E-01
 -0.23399E-01
 -0.35865E-01
 -0.25635E-01
 -0.16138E-01
 -0.16372E-01
 -0.16982E-01
 -0.10836E-01
  0.10228E-01
  0.80933E-02
  0.74781E-02
  0.58641E-02
  0.49235E-02
  0.39730E-02
  0.48614E-02
  0.96493E-03
  0.25251E-02
  0.32708E-02
  0.37747E-02
  0.24927E-01
  0.24628E-01
  0.79592E-03
 -0.17713E-03
  0.71691E-03
 -0.44402E-02
  0.22395E-01
  0.11060E-03
 -0.31388E-02
  0.20999E-01
  0.12979E-01
  0.11681E-01
  0.14627E-01
 -0.69315E-03
 -0.16439E-01
 -0.86260E-02
 -0.32474E-02
 -0.40206E-01
 -0.25543E-01
 -0.14712E-01
 -0.77468E-02
 -0.49988E-02
 -0.12896E-01
 -0.78348E-03
 -0.49370E-02
  0.44810E-02
  0.21526E-02
  0.10245E-01
  0.94178E-02
  0.16250E-01
  0.15760E-01
  0.20548E-01
  0.21909E-01
  0.24661E-01
  0.26523E-01
  0.27941E-01
  0.30008E-01
  0.29141E-01
  0.32564E-01
  0.32171E-01
  0.34317E-01
  0.33326E-01
  0.34858E-01
  0.36288E-01
  0.36211E-01
  0.38032E-01
  0.37115E-01
  0.39082E-01
  0.37454E-01
  0.35768E-01
  0.35583E-01
  0.37183E-01
  0.34784E-01
  0.35564E-01
  0.33471E-01
  0.33697E-01
  0.35755E-01
  0.33263E-01
  0.31380E-01
  0.30288E-01
  0.35301E-01
  0.34237E-01
  0.28836E-01
  0.27117E-01
  0.28180E-01
  0.24348E-01
  0.23652E-01
  0.20559E-01
  0.38078E-01
  0.31808E-01
  0.33639E-01
  0.18049E-01
  0.15671E-01
  0.18035E-01
  0.13927E-01
  0.10436E-01
  0.99367E-02
  0.58659E-02
  0.67218E-02
  0.30942E-02
  0.48734E-02
  0.25743E-02
  0.44582E-02
  0.19587E-01
  0.32343E-01
  0.29872E-01
  0.21357E-01
  0.32843E-01
  0.31398E-01
  0.37822E-01
  0.34347E-01
  0.27635E-01
  0.48779E-02
  0.22293E-01
  0.21928E-01
 -0.74454E-02
 -0.42733E-03
 -0.40473E-01
  0.19619E-02
 -0.29713E-03
  0.55063E-02
 -0.46070E-01
  0.21010E-02
  0.16035E-02
  0.28510E-02
  0.36588E-02
  0.66463E-02
  0.28137E-02
 -0.62668E-03
 -0.13225E-02
  0.73402E-02
  0.44341E-02
  0.12689E-02
  0.36956E-01
  0.73701E-02
  0.13492E-01
  0.43259E-02
  0.25882E-02
  0.12339E-01
  0.22747E-02
  0.18783E-02
 -0.11377E-02
 -0.37808E-01
  0.71330E-02
  0.33308E-01
  0.39723E-01
 -0.61783E-03
 -0.51925E-01
 -0.19838E-02
  0.23799E-01
  0.24616E-01
 -0.10631E-02
  0.30151E-01
  0.37406E-02
  0.45763E-02
  0.47347E-02
 -0.16107E-01
 -0.14368E-01
 -0.17901E-01
  0.27063E-01
  0.30628E-01
 -0.48239E-01
  0.88236E-02
  0.31787E-01
 -0.22009E-02
 -0.11397E-01
 -0.31547E-03
  0.41614E-02
  0.11509E-03
  0.14203E-01
  0.26163E-01
  0.23672E-01
  0.23200E-01
  0.13010E-02
  0.17615E-02
  0.49780E-03
  0.79447E-03
  0.33141E-01
  0.17798E-01
  0.17698E-01
 -0.36992E-02
  0.26522E-01
  0.28685E-01
 -0.50719E-02
  0.70847E-02
  0.47432E-02
  0.53391E-02
  0.31744E-02
  0.42062E-02
  0.45570E-02
 -0.11136E-01
 -0.12262E-01
 -0.47085E-01
 -0.41567E-01
  0.10086E-01
  0.11419E-01
  0.12951E-01
  0.31169E-01
  0.29658E-01
  0.31157E-01
  0.13061E-01
  0.11002E-01
 -0.77509E-03
 -0.72153E-02
 -0.21504E-01
  0.92325E-02
  0.37836E-01
  0.33778E-01
  0.33529E-01
  0.38163E-02
 -0.46754E-01
  0.31038E-01
  0.77001E-02
  0.15142E-01
  0.14942E-01
 -0.12283E-02
  0.98104E-02
  0.48169E-03
  0.28866E-03
  0.20213E-02
  0.21511E-01
  0.35961E-03
  0.15445E-02
 -0.15133E-03
 -0.19556E-02
  0.79555E-02
 -0.51218E-01
 -0.12064E-01
 -0.15385E-01
 -0.11920E-01
 -0.17243E-01
  0.18704E-02
 -0.79113E-04
  0.28011E-01
 -0.11880E-01
  0.57025E-02
  0.54184E-02
  0.34753E-02
  0.35488E-01
  0.59709E-03
  0.14894E-01
  0.24526E-01
 -0.12122E-01
 -0.16082E-01
  0.14569E-01
  0.10442E-01
 -0.38822E-01
  0.31044E-01
  0.31539E-01
  0.40191E-01
  0.41042E-01
  0.39318E-01
  0.40756E-01
  0.38970E-01
  0.34580E-02
  0.23763E-01
  0.48544E-02
  0.43257E-01
 -0.91118E-03
 -0.86706E-03
  0.19716E-01
  0.22020E-01
 -0.10515E-01
 -0.13748E-01
 -0.67763E-02
 -0.81170E-02
 -0.15841E-01
  0.12041E-02
  0.17306E-01
 -0.66474E-03
 -0.23212E-02
 -0.53746E-02
 -0.32382E-02
  0.20109E-01
  0.54202E-02
  0.48679E-02
  0.46379E-02
  0.27020E-01
  0.42363E-01
  0.53801E-02
  0.13436E-01
  0.13137E-01
  0.21793E-02
  0.46705E-02
  0.68303E-02
  0.11289E-01
 -0.56370E-02
 -0.22333E-01
 -0.21054E-02
  0.76701E-02
  0.18165E-02
 -0.42686E-01
 -0.27437E-01
 -0.38233E-01
  0.31493E-01
  0.29250E-01
  0.32387E-01
  0.56319E-02
 -0.28784E-01
 -0.25177E-01
 -0.56529E-03
 -0.21976E-01
  0.24208E-01
  0.24751E-01
  0.12908E-01
  0.32083E-01
 -0.21350E-01
 -0.22608E-01
 -0.17985E-01
  0.20444E-01
  0.20261E-01
  0.21666E-01
  0.18598E-01
  0.20096E-01
  0.21652E-01
  0.23194E-01
  0.24019E-01
  0.29584E-01
  0.30138E-01
  0.30400E-01
  0.30786E-01
  0.96222E-02
  0.28157E-01
  0.27463E-01
  0.29084E-01
  0.29647E-01
  0.26677E-01
  0.28449E-01
  0.27692E-01
 -0.66423E-02
  0.22663E-01
  0.22858E-01
  0.22394E-01
  0.22823E-01
  0.22730E-01
  0.21855E-01
  0.22715E-01
  0.22405E-01
  0.22135E-01
  0.21170E-01
  0.19759E-01
  0.46592E-02
  0.25876E-01
  0.26057E-01
  0.26663E-01
  0.26888E-01
  0.27277E-01
  0.27278E-01
  0.27476E-01
 -0.88500E-02
 -0.92200E-02
 -0.43907E-03
  0.24918E-01
  0.27619E-01
  0.28143E-01
 -0.14986E-01
 -0.17621E-01
 -0.64573E-03
  0.41200E-03
  0.21120E-01
  0.26702E-01
  0.26791E-01
  0.21759E-01
  0.48969E-02
  0.14800E-01
  0.15105E-01
  0.13155E-01
  0.12765E-01
  0.11012E-01
  0.97791E-02
  0.84186E-02
  0.10273E-01
  0.12360E-01
  0.13386E-01
  0.31356E-01
  0.14103E-01
  0.12400E-01
  0.13820E-01
  0.11629E-01
  0.13201E-01
  0.15373E-01
  0.14803E-01
  0.12076E-01
 -0.70517E-02
  0.28327E-01
  0.30490E-01
  0.31440E-01
  0.29914E-02
  0.19384E-01
  0.18045E-01
  0.19658E-01
  0.18117E-01
  0.19789E-01
  0.18004E-01
  0.16038E-01
  0.21021E-01
  0.19859E-01
  0.17680E-01
  0.17205E-01
  0.18608E-01
  0.16942E-01
  0.18363E-01
  0.19024E-01
  0.19757E-01
 -0.67501E-03
  0.24240E-01
 -0.36469E-01
 -0.45912E-02
  0.14042E-01
 -0.11324E-01
  0.33646E-02
  0.17936E-01
  0.15655E-01
  0.13905E-01
  0.16880E-01
  0.14195E-01
  0.28002E-01
 -0.29051E-01
 -0.14746E-02
  0.33285E-01
 -0.98967E-03
  0.98542E-02
  0.22497E-01
  0.19646E-01
  0.15601E-01
  0.10861E-01
  0.87525E-02
  0.12336E-02
  0.14108E-01
  0.11956E-02
  0.20881E-01
  0.88031E-02
 -0.96765E-02
 -0.85440E-02
 -0.27698E-02
 -0.22293E-02
 -0.32229E-01
  0.80600E-02
  0.11412E-01
  0.63780E-02
  0.19509E-01
  0.26412E-02
  0.17699E-02
  0.39601E-02
  0.29398E-02
  0.13079E-03
  0.17216E-02
  0.46322E-02
  0.32693E-02
  0.53939E-03
  0.20912E-01
  0.21411E-01
  0.52932E-02
  0.32328E-02
 -0.22076E-01
  0.53025E-02
  0.97762E-02
  0.33421E-01
  0.33469E-01
  0.32545E-01
  0.32442E-01
  0.31378E-01
  0.14803E-01
 -0.69120E-03
  0.21855E-01
  0.12099E-01
  0.47797E-02
  0.44660E-02
  0.22703E-01
  0.18019E-01
 -0.15015E-02
 -0.56938E-03
 -0.57223E-02
 -0.10090E-01
 -0.54558E-03
  0.41257E-02
  0.53390E-02
  0.53876E-02
  0.88583E-02
  0.91203E-02
  0.11584E-01
  0.11855E-01
  0.87203E-02
  0.11690E-01
  0.14339E-01
  0.16506E-01
  0.16015E-01
  0.17527E-01
  0.18136E-01
 -0.63921E-03
  0.32104E-03
  0.76862E-03
  0.47176E-03
  0.91463E-03
 -0.16369E-01
  0.57235E-02
  0.10545E-01
 -0.14155E-01
 -0.84267E-02
  0.15222E-01
 -0.71958E-02
  0.11282E-01
  0.97274E-02
 -0.55560E-02
  0.32659E-01
 -0.13745E-02
 -0.20649E-01
 -0.62931E-02
  0.11055E-02
  0.18090E-01
  0.34644E-01
  0.17291E-01
  0.26853E-02
 -0.11920E-01
  0.10383E-01
  0.91582E-02
 -0.25465E-01
  0.20369E-02
  0.12682E-02
  0.15545E-01
  0.78093E-03
  0.10708E-01
  0.71974E-02
 -0.82596E-02
 -0.42626E-01
 -0.46027E-01
  0.41608E-02
  0.74267E-02
  0.32728E-01
  0.22132E-01
  0.12326E-03
 -0.91160E-02
  0.25360E-01
  0.33386E-01
  0.23213E-01
 -0.38249E-01
  0.16758E-01
  0.18951E-01
  0.11716E-01
 -0.91375E-02
  0.71136E-02
  0.11442E-01
  0.25604E-02
 -0.35935E-01
  0.67966E-02
  0.92043E-02
  0.80649E-02
  0.40413E-01
  0.16771E-01
 -0.31562E-01
  0.23344E-01
  0.24271E-03
  0.10489E-01
  0.19076E-01
  0.12470E-01
  0.59154E-02
  0.48436E-02
 -0.90438E-02
  0.32997E-02
  0.26667E-02
  0.32664E-01
  0.47007E-02
  0.12519E-02
  0.34085E-01
 -0.25138E-01
 -0.14473E-01
 -0.55570E-03
  0.22689E-01
 -0.54575E-01
 -0.52302E-01
  0.38210E-02
  0.24895E-01
 -0.88520E-02
 -0.18309E-01
 -0.47919E-01
  0.15241E-02
  0.12403E-01
  0.28600E-01
  0.15709E-01
  0.10193E-01
 -0.58197E-02
  0.14646E-01
  0.17503E-01
  0.46485E-02
  0.55703E-02
  0.31592E-01
 -0.22849E-03
  0.21192E-01
  0.30938E-01
  0.25514E-02
  0.76917E-02
  0.15627E-01
 -0.46201E-01
 -0.11760E-01
  0.19152E-02
 -0.18240E-01
  0.32763E-01
  0.17204E-02
  0.15417E-01
  0.63970E-02
  0.21194E-01
  0.66205E-02
  0.29074E-01
  0.21908E-01
  0.49815E-02
  0.21933E-01
  0.13988E-01
  0.14394E-01
 -0.14748E-02
  0.42184E-02
  0.25956E-01
  0.10710E-01
 -0.40758E-01
  0.63669E-02
  0.28115E-01
  0.58011E-02
 -0.30474E-01
  0.32344E-01
  0.86683E-02
  0.59154E-03
  0.21201E-02
  0.30043E-01
 -0.18725E-02
  0.22061E-01
  0.30082E-01
  0.51261E-02
  0.20671E-01
  0.25523E-01
  0.22832E-01
  0.35460E-01
  0.31671E-01
  0.27314E-01
 -0.13025E-01
  0.26784E-01
 -0.33172E-03
 -0.70429E-04
 -0.18139E-01