# vtk DataFile Version 2.0
Unstructured Grid UFVM-ECOMOD
ASCII
DATASET UNSTRUCTURED_GRID
 POINTS         1724  float
  0.00000E+00  0.00000E+00  0.00000E+00
  0.40000E+01  0.00000E+00  0.00000E+00
  0.40000E+01  0.20000E+01  0.00000E+00
  0.00000E+00  0.20000E+01  0.00000E+00
  0.15750E+01  0.10287E+01  0.00000E+00
  0.15677E+01  0.97091E+00  0.00000E+00
  0.15461E+01  0.91674E+00  0.00000E+00
  0.15118E+01  0.86961E+00  0.00000E+00
  0.14667E+01  0.83248E+00  0.00000E+00
  0.14138E+01  0.80767E+00  0.00000E+00
  0.13563E+01  0.79675E+00  0.00000E+00
  0.12979E+01  0.80041E+00  0.00000E+00
  0.12423E+01  0.81842E+00  0.00000E+00
  0.11929E+01  0.84963E+00  0.00000E+00
  0.11529E+01  0.89210E+00  0.00000E+00
  0.11247E+01  0.94315E+00  0.00000E+00
  0.11102E+01  0.99958E+00  0.00000E+00
  0.11102E+01  0.10578E+01  0.00000E+00
  0.11247E+01  0.11143E+01  0.00000E+00
  0.11529E+01  0.11653E+01  0.00000E+00
  0.11929E+01  0.12078E+01  0.00000E+00
  0.12423E+01  0.12390E+01  0.00000E+00
  0.12979E+01  0.12570E+01  0.00000E+00
  0.13563E+01  0.12607E+01  0.00000E+00
  0.14138E+01  0.12497E+01  0.00000E+00
  0.14667E+01  0.12249E+01  0.00000E+00
  0.15118E+01  0.11878E+01  0.00000E+00
  0.15461E+01  0.11407E+01  0.00000E+00
  0.15677E+01  0.10865E+01  0.00000E+00
  0.10000E+00  0.00000E+00  0.00000E+00
  0.20000E+00  0.00000E+00  0.00000E+00
  0.30000E+00  0.00000E+00  0.00000E+00
  0.40000E+00  0.00000E+00  0.00000E+00
  0.50000E+00  0.00000E+00  0.00000E+00
  0.60000E+00  0.00000E+00  0.00000E+00
  0.70000E+00  0.00000E+00  0.00000E+00
  0.80000E+00  0.00000E+00  0.00000E+00
  0.90000E+00  0.00000E+00  0.00000E+00
  0.10000E+01  0.00000E+00  0.00000E+00
  0.11000E+01  0.00000E+00  0.00000E+00
  0.12000E+01  0.00000E+00  0.00000E+00
  0.13000E+01  0.00000E+00  0.00000E+00
  0.14000E+01  0.00000E+00  0.00000E+00
  0.15000E+01  0.00000E+00  0.00000E+00
  0.16000E+01  0.00000E+00  0.00000E+00
  0.17000E+01  0.00000E+00  0.00000E+00
  0.18000E+01  0.00000E+00  0.00000E+00
  0.19000E+01  0.00000E+00  0.00000E+00
  0.20000E+01  0.00000E+00  0.00000E+00
  0.21000E+01  0.00000E+00  0.00000E+00
  0.22000E+01  0.00000E+00  0.00000E+00
  0.23000E+01  0.00000E+00  0.00000E+00
  0.24000E+01  0.00000E+00  0.00000E+00
  0.25000E+01  0.00000E+00  0.00000E+00
  0.26000E+01  0.00000E+00  0.00000E+00
  0.27000E+01  0.00000E+00  0.00000E+00
  0.28000E+01  0.00000E+00  0.00000E+00
  0.29000E+01  0.00000E+00  0.00000E+00
  0.30000E+01  0.00000E+00  0.00000E+00
  0.31000E+01  0.00000E+00  0.00000E+00
  0.32000E+01  0.00000E+00  0.00000E+00
  0.33000E+01  0.00000E+00  0.00000E+00
  0.34000E+01  0.00000E+00  0.00000E+00
  0.35000E+01  0.00000E+00  0.00000E+00
  0.36000E+01  0.00000E+00  0.00000E+00
  0.37000E+01  0.00000E+00  0.00000E+00
  0.38000E+01  0.00000E+00  0.00000E+00
  0.39000E+01  0.00000E+00  0.00000E+00
  0.40000E+01  0.10000E+00  0.00000E+00
  0.40000E+01  0.20000E+00  0.00000E+00
  0.40000E+01  0.30000E+00  0.00000E+00
  0.40000E+01  0.40000E+00  0.00000E+00
  0.40000E+01  0.50000E+00  0.00000E+00
  0.40000E+01  0.60000E+00  0.00000E+00
  0.40000E+01  0.70000E+00  0.00000E+00
  0.40000E+01  0.80000E+00  0.00000E+00
  0.40000E+01  0.90000E+00  0.00000E+00
  0.40000E+01  0.10000E+01  0.00000E+00
  0.40000E+01  0.11000E+01  0.00000E+00
  0.40000E+01  0.12000E+01  0.00000E+00
  0.40000E+01  0.13000E+01  0.00000E+00
  0.40000E+01  0.14000E+01  0.00000E+00
  0.40000E+01  0.15000E+01  0.00000E+00
  0.40000E+01  0.16000E+01  0.00000E+00
  0.40000E+01  0.17000E+01  0.00000E+00
  0.40000E+01  0.18000E+01  0.00000E+00
  0.40000E+01  0.19000E+01  0.00000E+00
  0.39000E+01  0.20000E+01  0.00000E+00
  0.38000E+01  0.20000E+01  0.00000E+00
  0.37000E+01  0.20000E+01  0.00000E+00
  0.36000E+01  0.20000E+01  0.00000E+00
  0.35000E+01  0.20000E+01  0.00000E+00
  0.34000E+01  0.20000E+01  0.00000E+00
  0.33000E+01  0.20000E+01  0.00000E+00
  0.32000E+01  0.20000E+01  0.00000E+00
  0.31000E+01  0.20000E+01  0.00000E+00
  0.30000E+01  0.20000E+01  0.00000E+00
  0.29000E+01  0.20000E+01  0.00000E+00
  0.28000E+01  0.20000E+01  0.00000E+00
  0.27000E+01  0.20000E+01  0.00000E+00
  0.26000E+01  0.20000E+01  0.00000E+00
  0.25000E+01  0.20000E+01  0.00000E+00
  0.24000E+01  0.20000E+01  0.00000E+00
  0.23000E+01  0.20000E+01  0.00000E+00
  0.22000E+01  0.20000E+01  0.00000E+00
  0.21000E+01  0.20000E+01  0.00000E+00
  0.20000E+01  0.20000E+01  0.00000E+00
  0.19000E+01  0.20000E+01  0.00000E+00
  0.18000E+01  0.20000E+01  0.00000E+00
  0.17000E+01  0.20000E+01  0.00000E+00
  0.16000E+01  0.20000E+01  0.00000E+00
  0.15000E+01  0.20000E+01  0.00000E+00
  0.14000E+01  0.20000E+01  0.00000E+00
  0.13000E+01  0.20000E+01  0.00000E+00
  0.12000E+01  0.20000E+01  0.00000E+00
  0.11000E+01  0.20000E+01  0.00000E+00
  0.10000E+01  0.20000E+01  0.00000E+00
  0.90000E+00  0.20000E+01  0.00000E+00
  0.80000E+00  0.20000E+01  0.00000E+00
  0.70000E+00  0.20000E+01  0.00000E+00
  0.60000E+00  0.20000E+01  0.00000E+00
  0.50000E+00  0.20000E+01  0.00000E+00
  0.40000E+00  0.20000E+01  0.00000E+00
  0.30000E+00  0.20000E+01  0.00000E+00
  0.20000E+00  0.20000E+01  0.00000E+00
  0.10000E+00  0.20000E+01  0.00000E+00
  0.00000E+00  0.19000E+01  0.00000E+00
  0.00000E+00  0.18000E+01  0.00000E+00
  0.00000E+00  0.17000E+01  0.00000E+00
  0.00000E+00  0.16000E+01  0.00000E+00
  0.00000E+00  0.15000E+01  0.00000E+00
  0.00000E+00  0.14000E+01  0.00000E+00
  0.00000E+00  0.13000E+01  0.00000E+00
  0.00000E+00  0.12000E+01  0.00000E+00
  0.00000E+00  0.11000E+01  0.00000E+00
  0.00000E+00  0.10000E+01  0.00000E+00
  0.00000E+00  0.90000E+00  0.00000E+00
  0.00000E+00  0.80000E+00  0.00000E+00
  0.00000E+00  0.70000E+00  0.00000E+00
  0.00000E+00  0.60000E+00  0.00000E+00
  0.00000E+00  0.50000E+00  0.00000E+00
  0.00000E+00  0.40000E+00  0.00000E+00
  0.00000E+00  0.30000E+00  0.00000E+00
  0.00000E+00  0.20000E+00  0.00000E+00
  0.00000E+00  0.10000E+00  0.00000E+00
  0.15713E+01  0.99981E+00  0.00000E+00
  0.15569E+01  0.94382E+00  0.00000E+00
  0.15290E+01  0.89318E+00  0.00000E+00
  0.14892E+01  0.85104E+00  0.00000E+00
  0.14402E+01  0.82007E+00  0.00000E+00
  0.13850E+01  0.80221E+00  0.00000E+00
  0.13271E+01  0.79858E+00  0.00000E+00
  0.12701E+01  0.80941E+00  0.00000E+00
  0.12176E+01  0.83402E+00  0.00000E+00
  0.11729E+01  0.87086E+00  0.00000E+00
  0.11388E+01  0.91762E+00  0.00000E+00
  0.11175E+01  0.97136E+00  0.00000E+00
  0.11102E+01  0.10287E+01  0.00000E+00
  0.11175E+01  0.10860E+01  0.00000E+00
  0.11388E+01  0.11398E+01  0.00000E+00
  0.11729E+01  0.11865E+01  0.00000E+00
  0.12176E+01  0.12234E+01  0.00000E+00
  0.12701E+01  0.12480E+01  0.00000E+00
  0.13271E+01  0.12588E+01  0.00000E+00
  0.13850E+01  0.12552E+01  0.00000E+00
  0.14402E+01  0.12373E+01  0.00000E+00
  0.14892E+01  0.12064E+01  0.00000E+00
  0.15290E+01  0.11642E+01  0.00000E+00
  0.15569E+01  0.11136E+01  0.00000E+00
  0.15713E+01  0.10576E+01  0.00000E+00
  0.15994E+01  0.10133E+01  0.00000E+00
  0.15863E+01  0.11089E+01  0.00000E+00
  0.25478E+01  0.10053E+00  0.00000E+00
  0.25434E+01  0.19142E+01  0.00000E+00
  0.11238E+01  0.89266E+00  0.00000E+00
  0.11061E+01  0.11423E+01  0.00000E+00
  0.15575E+01  0.89126E+00  0.00000E+00
  0.10894E+01  0.97917E+00  0.00000E+00
  0.15393E+01  0.11910E+01  0.00000E+00
  0.11627E+01  0.12175E+01  0.00000E+00
  0.14962E+01  0.82262E+00  0.00000E+00
  0.29512E+01  0.95010E-01  0.00000E+00
  0.29494E+01  0.19117E+01  0.00000E+00
  0.39186E+01  0.10466E+01  0.00000E+00
  0.11913E+01  0.82197E+00  0.00000E+00
  0.12788E+01  0.78594E+00  0.00000E+00
  0.21500E+01  0.86600E-01  0.00000E+00
  0.21472E+01  0.19005E+01  0.00000E+00
  0.14041E+01  0.78007E+00  0.00000E+00
  0.14641E+01  0.12550E+01  0.00000E+00
  0.13764E+01  0.12826E+01  0.00000E+00
  0.99450E-01  0.63780E+00  0.00000E+00
  0.92450E-01  0.13422E+01  0.00000E+00
  0.12473E+01  0.12677E+01  0.00000E+00
  0.65677E+00  0.19154E+01  0.00000E+00
  0.86110E-01  0.10467E+01  0.00000E+00
  0.75000E+00  0.86600E-01  0.00000E+00
  0.33379E+01  0.88030E-01  0.00000E+00
  0.33490E+01  0.19201E+01  0.00000E+00
  0.18500E+01  0.86600E-01  0.00000E+00
  0.18441E+01  0.19006E+01  0.00000E+00
  0.38922E+01  0.64055E+00  0.00000E+00
  0.39154E+01  0.13500E+01  0.00000E+00
  0.10564E+01  0.85180E-01  0.00000E+00
  0.94817E+00  0.19249E+01  0.00000E+00
  0.15421E+01  0.85450E-01  0.00000E+00
  0.15479E+01  0.19161E+01  0.00000E+00
  0.12386E+01  0.19130E+01  0.00000E+00
  0.45294E+00  0.85030E-01  0.00000E+00
  0.86890E-01  0.16531E+01  0.00000E+00
  0.36495E+01  0.78620E-01  0.00000E+00
  0.36510E+01  0.19107E+01  0.00000E+00
  0.10846E+01  0.10423E+01  0.00000E+00
  0.15860E+01  0.94842E+00  0.00000E+00
  0.13392E+01  0.77093E+00  0.00000E+00
  0.13108E+01  0.12864E+01  0.00000E+00
  0.87300E-01  0.35008E+00  0.00000E+00
  0.34468E+00  0.19176E+01  0.00000E+00
  0.39135E+01  0.16499E+01  0.00000E+00
  0.39252E+01  0.34254E+00  0.00000E+00
  0.13680E+01  0.88360E-01  0.00000E+00
  0.88350E-01  0.84594E+00  0.00000E+00
  0.23513E+01  0.77830E-01  0.00000E+00
  0.23488E+01  0.19154E+01  0.00000E+00
  0.27481E+01  0.80910E-01  0.00000E+00
  0.31480E+01  0.84140E-01  0.00000E+00
  0.31513E+01  0.19149E+01  0.00000E+00
  0.27502E+01  0.19198E+01  0.00000E+00
  0.39134E+01  0.85000E+00  0.00000E+00
  0.25071E+00  0.86200E-01  0.00000E+00
  0.91130E-01  0.18412E+01  0.00000E+00
  0.38461E+01  0.84360E-01  0.00000E+00
  0.38408E+01  0.19092E+01  0.00000E+00
  0.97440E-01  0.15849E+00  0.00000E+00
  0.15988E+01  0.10458E+01  0.00000E+00
  0.16261E+01  0.10305E+01  0.00000E+00
  0.16281E+01  0.99836E+00  0.00000E+00
  0.16554E+01  0.10148E+01  0.00000E+00
  0.16578E+01  0.98164E+00  0.00000E+00
  0.16863E+01  0.99914E+00  0.00000E+00
  0.16884E+01  0.96239E+00  0.00000E+00
  0.17222E+01  0.98417E+00  0.00000E+00
  0.17231E+01  0.93952E+00  0.00000E+00
  0.17605E+01  0.96435E+00  0.00000E+00
  0.17576E+01  0.10098E+01  0.00000E+00
  0.17991E+01  0.98970E+00  0.00000E+00
  0.17625E+01  0.91931E+00  0.00000E+00
[...]
 POINT_DATA         1724
  
 SCALARS WL      float 1
 LOOKUP_TABLE default
  0.21709E-01
  0.39827E-02
  0.45399E-03
  0.34171E-01
 -0.38748E-01
 -0.32119E-01
 -0.20030E-01
 -0.69941E-02
 -0.22115E-02
 -0.86267E-03
  0.13956E-02
 -0.50273E-02
 -0.64804E-03
  0.86217E-02
  0.24874E-01
  0.36558E-01
  0.43618E-01
  0.44034E-01
  0.37719E-01
  0.25936E-01
  0.74852E-02
 -0.14357E-01
 -0.37933E-01
 -0.60859E-01
 -0.66044E-01
 -0.52533E-01
 -0.48104E-01
 -0.44985E-01
 -0.41513E-01
  0.21462E-01
  0.21041E-01
  0.20469E-01
  0.19733E-01
  0.18771E-01
  0.17549E-01
  0.16073E-01
  0.14375E-01
  0.12316E-01
  0.10032E-01
  0.81156E-02
  0.64065E-02
  0.53136E-02
  0.53944E-02
  0.58794E-02
  0.67236E-02
  0.75245E-02
  0.81302E-02
  0.87588E-02
  0.92054E-02
  0.96836E-02
  0.98726E-02
  0.99031E-02
  0.92990E-02
  0.85818E-02
  0.77166E-02
  0.71599E-02
  0.69885E-02
  0.71602E-02
  0.80673E-02
  0.93273E-02
  0.10724E-01
  0.12238E-01
  0.13162E-01
  0.13695E-01
  0.13193E-01
  0.11775E-01
  0.98596E-02
  0.67436E-02
  0.00000E+00
  0.00000E+00
  0.00000E+00
  0.00000E+00
  0.00000E+00
  0.00000E+00
  0.00000E+00
  0.00000E+00
  0.00000E+00
  0.00000E+00
  0.00000E+00
  0.00000E+00
  0.00000E+00
  0.00000E+00
  0.00000E+00
  0.00000E+00
  0.00000E+00
  0.00000E+00
  0.00000E+00
  0.81819E-03
  0.21301E-02
  0.45808E-02
  0.72070E-02
  0.96314E-02
  0.11783E-01
  0.12717E-01
  0.12496E-01
  0.11133E-01
  0.91536E-02
  0.77427E-02
  0.77912E-02
  0.89283E-02
  0.10628E-01
  0.12313E-01
  0.13579E-01
  0.14267E-01
  0.14413E-01
  0.14122E-01
  0.13388E-01
  0.12451E-01
  0.11407E-01
  0.10364E-01
  0.97655E-02
  0.99843E-02
  0.11109E-01
  0.13069E-01
  0.15575E-01
  0.18316E-01
  0.21072E-01
  0.23712E-01
  0.26056E-01
  0.28155E-01
  0.29997E-01
  0.31668E-01
  0.33077E-01
  0.34061E-01
  0.34542E-01
  0.34511E-01
  0.33944E-01
  0.33414E-01
  0.32709E-01
  0.31756E-01
  0.30883E-01
  0.29738E-01
  0.28755E-01
  0.27811E-01
  0.26987E-01
  0.26230E-01
  0.25525E-01
  0.24871E-01
  0.24208E-01
  0.23630E-01
  0.23102E-01
  0.22642E-01
  0.22267E-01
  0.21985E-01
  0.21800E-01
 -0.36440E-01
 -0.26636E-01
 -0.12201E-01
 -0.32388E-02
 -0.22927E-02
  0.10479E-02
 -0.18947E-02
 -0.58165E-02
  0.20234E-02
  0.17250E-01
  0.31422E-01
  0.41355E-01
  0.44576E-01
  0.42141E-01
  0.32849E-01
  0.17070E-01
 -0.24051E-02
 -0.25411E-01
 -0.50725E-01
 -0.65933E-01
 -0.60562E-01
 -0.48968E-01
 -0.46864E-01
 -0.43048E-01
 -0.40124E-01
 -0.36217E-01
 -0.41490E-01
  0.83679E-02
  0.11701E-01
  0.29617E-01
  0.35330E-01
 -0.15334E-01
  0.42345E-01
 -0.47213E-01
  0.15550E-01
 -0.35450E-02
  0.83792E-02
  0.81265E-02
 -0.52211E-02
  0.74326E-02
 -0.43667E-02
  0.95118E-02
  0.14361E-01
  0.19276E-03
 -0.54960E-01
 -0.58805E-01
  0.23743E-01
  0.29481E-01
 -0.15356E-01
  0.29079E-01
  0.26654E-01
  0.15336E-01
  0.12935E-01
  0.12348E-01
  0.81855E-02
  0.11539E-01
 -0.12207E-01
  0.38098E-02
  0.91455E-02
  0.22466E-01
  0.63351E-02
  0.94105E-02
  0.14394E-01
  0.19323E-01
  0.32650E-01
  0.12417E-01
  0.60446E-02
  0.44172E-01
 -0.28000E-01
  0.51064E-03
 -0.38694E-01
  0.22275E-01
  0.33641E-01
  0.26461E-02
  0.25833E-02
  0.55724E-02
  0.25163E-01
  0.95720E-02
  0.14079E-01
  0.73748E-02
  0.10532E-01
  0.12013E-01
  0.80895E-02
 -0.14191E-01
  0.20835E-01
  0.34035E-01
  0.84407E-02
  0.16381E-02
  0.21653E-01
 -0.38315E-01
 -0.36204E-01
 -0.34558E-01
 -0.35817E-01
 -0.33765E-01
 -0.35661E-01
 -0.32707E-01
 -0.34609E-01
 -0.30356E-01
 -0.31881E-01
 -0.34933E-01
 -0.31072E-01
 -0.26779E-01
 -0.32079E-01
 -0.27401E-01
 -0.25873E-01
 -0.21786E-01
 -0.18378E-01
 -0.15669E-01
 -0.19453E-01
 -0.14642E-01
 -0.19647E-01
 -0.16821E-01
 -0.22500E-01
 -0.21250E-01
 -0.26816E-01
 -0.25113E-01
 -0.10030E-01
 -0.29545E-01
 -0.25037E-01
 -0.19999E-01
 -0.17307E-01
 -0.28488E-01
 -0.11577E-01
 -0.84343E-02
 -0.10307E-01
 -0.34397E-02
 -0.24826E-02
  0.11689E-02
  0.54237E-03
  0.24225E-02
  0.46117E-02
  0.38701E-02
  0.12742E-02
  0.49941E-03
  0.50360E-02
  0.11405E-03
 -0.57022E-02
 -0.67464E-02
  0.97343E-03
 -0.49883E-02
  0.31355E-02
 -0.15200E-02
 -0.94631E-02
 -0.47265E-02
  0.15186E-02
 -0.10777E-01
 -0.53207E-02
 -0.80777E-02
 -0.22301E-01
 -0.37851E-02
 -0.34264E-02
 -0.83225E-02
 -0.29006E-01
 -0.25639E-01
 -0.22965E-01
 -0.19359E-01
 -0.13989E-01
 -0.10784E-01
 -0.11941E-02
 -0.22698E-02
  0.94722E-03
 -0.49903E-02
 -0.11880E-01
 -0.54196E-02
 -0.36814E-02
 -0.24673E-03
  0.27149E-02
  0.14901E-02
  0.43007E-02
  0.37381E-02
  0.59161E-02
 -0.23465E-01
  0.54213E-02
  0.67538E-02
  0.57464E-02
  0.63975E-02
  0.77117E-02
  0.66238E-02
  0.77980E-02
  0.62761E-02
  0.60636E-02
  0.58592E-02
 -0.51241E-02
  0.10752E-02
  0.23569E-02
  0.57781E-02
  0.73993E-02
  0.27688E-02
 -0.19103E-01
  0.61696E-02
  0.62532E-02
 -0.14325E-01
  0.54320E-02
  0.38076E-02
  0.66998E-02
  0.70460E-02
  0.88013E-02
  0.66570E-02
  0.70561E-02
  0.64367E-02
  0.76606E-02
  0.87893E-02
  0.10429E-01
  0.49292E-02
  0.69527E-02
  0.84793E-02
  0.87568E-02
  0.97396E-02
  0.95416E-02
  0.10638E-01
  0.10804E-01
  0.11905E-01
  0.12158E-01
  0.13379E-01
  0.13912E-01
  0.15251E-01
  0.14203E-01
  0.16051E-01
  0.17375E-01
  0.18024E-01
  0.19688E-01
  0.19963E-01
  0.21891E-01
  0.21741E-01
  0.23793E-01
  0.23213E-01
  0.25326E-01
  0.24450E-01
  0.26471E-01
  0.25404E-01
  0.27195E-01
  0.23705E-01
  0.26072E-01
  0.27642E-01
  0.26501E-01
  0.27900E-01
  0.29166E-01
  0.29170E-01
  0.30489E-01
  0.30261E-01
  0.31549E-01
  0.31095E-01
  0.32242E-01
  0.31647E-01
  0.32566E-01
  0.31907E-01
  0.32511E-01
  0.31880E-01
  0.32090E-01
  0.31599E-01
  0.31365E-01
  0.31432E-01
  0.29928E-01
  0.31105E-01
  0.30429E-01
  0.19981E-01
  0.26879E-01
  0.25516E-01
  0.30454E-01
  0.31080E-01
  0.29430E-01
  0.29216E-01
  0.27947E-01
  0.27423E-01
  0.26032E-01
  0.25011E-01
  0.23651E-01
  0.21948E-01
  0.25922E-01
  0.24681E-01
  0.14753E-01
  0.32127E-01
  0.30615E-01
  0.31223E-01
  0.29132E-01
  0.27629E-01
  0.33404E-01
  0.20882E-01
  0.18366E-01
  0.26861E-01
  0.30936E-01
  0.31493E-01
  0.25094E-01
  0.24067E-01
  0.10172E-01
  0.17788E-01
  0.14665E-01
  0.23322E-01
  0.23984E-01
  0.26226E-01
  0.31431E-01
  0.31663E-01
  0.31270E-01
 -0.37017E-01
  0.23499E-01
  0.23095E-01
  0.22357E-01
  0.22165E-01
  0.21298E-01
  0.63674E-02
  0.31393E-01
  0.21306E-01
  0.93228E-02
 -0.88773E-02
 -0.13899E-01
  0.18841E-01
  0.14643E-01
  0.10288E-01
  0.11065E-01
  0.61410E-02
  0.77605E-02
  0.27748E-02
  0.51455E-02
  0.53785E-03
 -0.29834E-02
 -0.58399E-02
 -0.55695E-03
 -0.51669E-02
 -0.11622E-01
 -0.97276E-02
 -0.36865E-02
 -0.69436E-02
 -0.16149E-02
 -0.32972E-02
 -0.92592E-02
 -0.43754E-02
 -0.10431E-01
 -0.50317E-02
  0.30470E-04
  0.43259E-04
  0.41008E-02
  0.47528E-02
  0.76653E-02
  0.85596E-02
  0.10663E-01
  0.11786E-01
  0.95391E-02
  0.12635E-01
  0.14016E-01
  0.14797E-01
  0.15412E-01
  0.16068E-01
  0.13294E-01
  0.80937E-03
  0.10372E-01
  0.10595E-01
  0.12435E-01
  0.16083E-01
  0.16329E-01
  0.24522E-01
  0.79357E-02
  0.20389E-01
  0.20278E-01
  0.93196E-02
  0.15846E-01
  0.15417E-01
  0.15341E-01
  0.13420E-01
  0.13490E-01
  0.10663E-01
 -0.16768E-01
 -0.17428E-01
  0.10818E-01
  0.72839E-02
  0.43376E-03
  0.23780E-02
 -0.21753E-02
  0.30520E-01
  0.78107E-02
  0.72889E-02
 -0.17453E-01
 -0.31088E-02
  0.95359E-02
  0.12793E-01
  0.13761E-01
  0.15642E-01
  0.15956E-01
  0.16705E-01
  0.16539E-01
  0.15612E-01
  0.15925E-01
  0.14720E-01
  0.16364E-01
  0.14950E-01
  0.13545E-01
  0.12333E-01
  0.10889E-01
  0.87504E-02
  0.67136E-02
  0.92826E-02
  0.42869E-02
  0.92827E-03
  0.77554E-02
  0.20211E-02
  0.65842E-02
  0.16593E-02
  0.35187E-02
 -0.36244E-02
  0.13004E-01
 -0.35046E-02
  0.43795E-03
  0.22086E-01
  0.21384E-01
 -0.13331E-01
  0.12365E-02
  0.11618E-01
  0.12455E-01
  0.20158E-01
  0.11691E-01
  0.65527E-02
 -0.14200E-01
 -0.18043E-01
  0.52738E-02
  0.55494E-02
  0.13946E-01
  0.40254E-02
  0.31167E-01
  0.31953E-01
  0.75374E-02
  0.83059E-02
  0.24306E-02
  0.92615E-02
 -0.41116E-04
 -0.62407E-02
 -0.24736E-01
 -0.25033E-01
 -0.74782E-02
  0.31476E-01
  0.30810E-01
 -0.30156E-02
 -0.13132E-01
  0.66260E-03
 -0.57040E-02
 -0.59164E-02
 -0.18099E-03
 -0.22135E-01
 -0.26958E-01
  0.89238E-03
  0.89781E-02
  0.91073E-02
 -0.38286E-02
  0.25794E-02
  0.19345E-01
  0.19028E-01
  0.89134E-02
  0.56000E-02
  0.14619E-01
  0.15248E-01
 -0.88980E-02
  0.74375E-03
 -0.44418E-02
  0.27131E-02
 -0.17561E-01
 -0.70429E-02
  0.59684E-02
  0.14654E-01
 -0.10234E-01
 -0.70672E-02
  0.10140E-01
  0.22083E-01
  0.10384E-01
 -0.27062E-01
  0.49806E-02
  0.21519E-01
  0.44979E-02
  0.30701E-01
  0.30021E-01
  0.29982E-01
  0.29159E-01
  0.29184E-01
  0.29156E-01
  0.28269E-01
  0.59198E-02
  0.30035E-01
 -0.20330E-02
  0.22027E-02
  0.14699E-01
  0.78412E-02
  0.73972E-02
  0.35741E-02
  0.77098E-02
 -0.21339E-01
  0.31891E-01
  0.32559E-01
  0.19614E-01
  0.17885E-01
  0.17601E-01
  0.22750E-01
 -0.32810E-01
 -0.32165E-01
  0.74763E-02
 -0.11911E-01
 -0.18362E-01
 -0.22252E-02
  0.57564E-03
 -0.29534E-02
 -0.21676E-03
 -0.23384E-02
  0.74569E-03
  0.83812E-03
  0.31740E-03
  0.18891E-01
  0.17323E-01
  0.16075E-01
  0.15607E-01
  0.14382E-01
  0.13804E-01
  0.59709E-02
 -0.26232E-01
  0.58360E-02
  0.30968E-01
  0.31738E-01
  0.13041E-01
 -0.17670E-01
  0.50419E-02
  0.89700E-02
  0.39702E-02
  0.64452E-02
  0.80945E-02
  0.81000E-02
  0.92953E-02
 -0.33422E-02
  0.14219E-01
  0.71488E-02
 -0.30718E-01
 -0.12673E-01
  0.10004E-01
  0.28266E-01
  0.27361E-01
  0.27449E-01
  0.26592E-01
 -0.11406E-01
  0.95460E-02
 -0.39635E-01
 -0.38933E-01
 -0.30390E-01
 -0.36127E-01
  0.22676E-01
  0.23363E-01
  0.69958E-02
 -0.18690E-01
 -0.23560E-01
  0.10138E-01
  0.59402E-02
  0.42523E-02
  0.63407E-02
  0.60380E-02
  0.70595E-02
  0.68953E-02
 -0.40403E-01
  0.31925E-01
  0.29272E-01
  0.28599E-01
  0.77734E-02
  0.82701E-02
  0.22726E-01
  0.94717E-02
  0.75551E-02
  0.96631E-02
 -0.59280E-02
 -0.53064E-02
  0.58008E-02
  0.62536E-02
  0.12618E-01
  0.13454E-01
 -0.25445E-01
 -0.34668E-01
 -0.35785E-01
 -0.21222E-01
 -0.13813E-01
 -0.80640E-02
  0.14104E-01
  0.11576E-01
  0.12778E-01
 -0.95751E-03
  0.65752E-02
  0.13817E-02
  0.31163E-01
  0.32037E-01
  0.91559E-02
  0.29762E-02
  0.33438E-02
  0.35473E-02
  0.98147E-02
  0.32630E-01
  0.33164E-01
  0.31720E-01
  0.10836E-01
  0.10665E-01
  0.11793E-01
  0.30037E-01
 -0.13051E-01
 -0.88360E-02
 -0.15531E-01
  0.30059E-01
  0.27674E-01
  0.26914E-01
  0.25740E-01
  0.23713E-02
 -0.21766E-03
 -0.47702E-02
  0.10733E-01
  0.71476E-02
  0.25830E-02
  0.64779E-02
  0.20073E-02
 -0.33352E-01
 -0.40361E-01
 -0.38948E-01
  0.26429E-01
  0.25724E-01
  0.26004E-01
  0.25202E-01
  0.11748E-01
  0.20783E-01
  0.21052E-01
  0.44497E-02
  0.24948E-01
  0.23656E-01
  0.26338E-01
 -0.10715E-01
 -0.10104E-01
  0.79492E-02
  0.78931E-02
  0.67713E-02
  0.79171E-02
  0.17136E-01
  0.17351E-01
  0.19601E-01
  0.17046E-01
  0.19268E-01
 -0.85099E-02
  0.29538E-01
  0.16882E-01
  0.14538E-01
 -0.41505E-01
 -0.43186E-01
  0.18721E-02
  0.37872E-02
  0.31354E-01
  0.47568E-02
  0.13485E-01
 -0.26128E-01
 -0.29787E-01
 -0.42972E-01
 -0.32018E-01
 -0.21705E-01
 -0.21512E-01
 -0.78393E-02
 -0.24857E-02
  0.16306E-01
  0.15105E-01
  0.14942E-01
  0.13106E-01
  0.12809E-01
  0.10824E-01
  0.11134E-01
  0.67418E-02
  0.80901E-02
  0.88133E-02
  0.89590E-02
  0.24880E-01
  0.24419E-01
  0.61639E-02
  0.65869E-02
  0.66011E-02
 -0.74636E-02
  0.19253E-01
  0.15651E-02
 -0.58551E-02
  0.20306E-01
  0.68420E-02
  0.56463E-02
  0.92616E-02
  0.68960E-02
 -0.22171E-01
  0.13970E-03
  0.32080E-02
 -0.40189E-01
 -0.31334E-01
 -0.19176E-01
 -0.11880E-01
 -0.84947E-02
 -0.16609E-01
 -0.36038E-02
 -0.76059E-02
  0.22923E-02
  0.23587E-03
  0.86153E-02
  0.81264E-02
  0.15115E-01
  0.14230E-01
  0.19410E-01
  0.21195E-01
  0.23862E-01
  0.26129E-01
  0.27417E-01
  0.29867E-01
  0.29123E-01
  0.32751E-01
  0.32236E-01
  0.34662E-01
  0.33569E-01
  0.35337E-01
  0.36835E-01
  0.36860E-01
  0.38706E-01
  0.37868E-01
  0.39824E-01
  0.38271E-01
  0.36602E-01
  0.36477E-01
  0.38052E-01
  0.35721E-01
  0.36499E-01
  0.34451E-01
  0.34708E-01
  0.36713E-01
  0.34346E-01
  0.32494E-01
  0.31540E-01
  0.36313E-01
  0.35147E-01
  0.30074E-01
  0.28584E-01
  0.29670E-01
  0.26171E-01
  0.25605E-01
  0.22880E-01
  0.38672E-01
  0.31748E-01
  0.34033E-01
  0.20667E-01
  0.18683E-01
  0.20692E-01
  0.17265E-01
  0.14252E-01
  0.13945E-01
  0.10352E-01
  0.11168E-01
  0.76871E-02
  0.92482E-02
  0.64937E-02
  0.81976E-02
  0.18042E-01
  0.32620E-01
  0.30982E-01
  0.23509E-01
  0.33817E-01
  0.32390E-01
  0.38710E-01
  0.35191E-01
  0.27712E-01
  0.93327E-02
  0.21673E-01
  0.21257E-01
 -0.63458E-02
  0.54285E-02
 -0.39678E-01
  0.22365E-03
 -0.44882E-02
  0.90770E-02
 -0.45218E-01
  0.71222E-02
  0.72198E-02
  0.10531E-01
  0.12332E-01
  0.69035E-02
  0.27342E-02
  0.13217E-02
 -0.89655E-03
  0.11751E-01
 -0.62013E-03
  0.64823E-02
  0.37894E-01
  0.10414E-01
  0.15114E-01
  0.55018E-02
  0.26029E-02
  0.15979E-01
  0.37978E-02
 -0.37671E-04
 -0.28704E-02
 -0.38642E-01
  0.47447E-02
  0.34449E-01
  0.40354E-01
 -0.21343E-02
 -0.50208E-01
 -0.33533E-02
  0.23516E-01
  0.21441E-01
  0.70044E-02
  0.32265E-01
  0.92729E-02
  0.97337E-02
  0.11346E-01
 -0.21141E-01
 -0.23258E-01
 -0.23004E-01
  0.24361E-01
  0.28695E-01
 -0.50478E-01
  0.11754E-01
  0.32334E-01
 -0.13900E-01
 -0.17833E-01
 -0.15413E-02
  0.75172E-02
  0.35185E-02
  0.72298E-02
  0.27548E-01
  0.23209E-01
  0.22653E-01
  0.11677E-01
  0.11908E-01
  0.13034E-01
  0.12970E-01
  0.34064E-01
  0.12370E-01
  0.11798E-01
 -0.14667E-02
  0.25656E-01
  0.28011E-01
 -0.39021E-02
  0.87939E-02
  0.74195E-02
 -0.64477E-02
  0.34369E-02
  0.92173E-02
  0.93328E-02
 -0.20546E-01
 -0.17570E-01
 -0.45627E-01
 -0.41657E-01
  0.12067E-01
  0.11686E-01
  0.12732E-01
  0.32140E-01
  0.30606E-01
  0.32778E-01
  0.15952E-01
  0.11397E-01
  0.34652E-02
 -0.18528E-01
 -0.23942E-01
  0.12737E-01
  0.38411E-01
  0.32575E-01
  0.31371E-01
  0.94081E-02
 -0.52672E-01
  0.33112E-01
  0.11490E-01
  0.14684E-01
  0.12962E-01
  0.75566E-02
  0.15638E-01
  0.63736E-02
  0.66872E-02
  0.72910E-02
  0.19575E-01
  0.81001E-02
  0.11559E-01
  0.50139E-02
  0.29468E-02
  0.14585E-01
 -0.48127E-01
 -0.18451E-01
 -0.20743E-01
 -0.16111E-01
 -0.21767E-01
  0.59211E-02
 -0.51002E-02
  0.26773E-01
 -0.15170E-01
  0.93876E-02
  0.85850E-02
  0.10698E-01
  0.35935E-01
  0.55265E-02
  0.13231E-01
  0.24245E-01
 -0.74933E-02
 -0.12518E-01
  0.11004E-01
  0.84516E-03
 -0.39582E-01
  0.30645E-01
  0.31383E-01
  0.40877E-01
  0.41769E-01
  0.40108E-01
  0.41518E-01
  0.39792E-01
  0.71591E-04
  0.23177E-01
  0.59415E-02
  0.43951E-01
  0.61382E-02
  0.65063E-02
  0.21744E-01
  0.23896E-01
  0.19139E-02
 -0.17306E-02
  0.60743E-02
 -0.31554E-03
 -0.87544E-02
  0.88087E-02
  0.16622E-01
 -0.32049E-02
 -0.73841E-02
 -0.82054E-02
 -0.57876E-02
  0.17035E-01
  0.11263E-01
  0.97996E-02
  0.90235E-02
  0.28649E-01
  0.43032E-01
  0.65699E-02
  0.72959E-02
  0.70742E-02
  0.18672E-02
  0.54216E-02
  0.60795E-02
  0.14810E-01
 -0.17774E-02
 -0.25570E-01
  0.30854E-02
  0.22636E-02
 -0.31748E-02
 -0.49164E-01
 -0.32242E-01
 -0.38539E-01
  0.31833E-01
  0.31486E-01
  0.32883E-01
  0.45871E-02
 -0.33247E-01
 -0.29272E-01
 -0.18469E-02
 -0.17581E-01
  0.23854E-01
  0.24414E-01
  0.16295E-01
  0.33283E-01
 -0.11641E-01
 -0.15957E-01
 -0.15930E-01
  0.20245E-01
  0.20342E-01
  0.21649E-01
  0.18861E-01
  0.20569E-01
  0.21408E-01
  0.23387E-01
  0.24154E-01
  0.30769E-01
  0.31177E-01
  0.31285E-01
  0.31329E-01
  0.10756E-01
  0.29231E-01
  0.28336E-01
  0.30224E-01
  0.30785E-01
  0.27327E-01
  0.29486E-01
  0.28557E-01
 -0.13387E-01
  0.14472E-01
  0.14576E-01
  0.13895E-01
  0.14727E-01
  0.15009E-01
  0.13781E-01
  0.15561E-01
  0.15223E-01
  0.14804E-01
  0.12826E-01
  0.12341E-01
  0.52701E-02
  0.25876E-01
  0.26315E-01
  0.27282E-01
  0.27496E-01
  0.28283E-01
  0.28279E-01
  0.28551E-01
 -0.73927E-02
 -0.10944E-01
  0.58215E-02
  0.26186E-01
  0.28515E-01
  0.28991E-01
 -0.20102E-01
 -0.16074E-01
  0.16987E-02
 -0.45813E-02
  0.23159E-01
  0.27343E-01
  0.27434E-01
  0.22022E-01
  0.89804E-02
  0.11767E-01
  0.12083E-01
  0.99659E-02
  0.96100E-02
  0.75858E-02
  0.63888E-02
  0.46713E-02
  0.64437E-02
  0.92260E-02
  0.10084E-01
  0.30011E-01
  0.96135E-02
  0.81703E-02
  0.89431E-02
  0.69134E-02
  0.79506E-02
  0.99203E-02
  0.91650E-02
  0.65494E-02
 -0.16370E-01
  0.24930E-01
  0.27156E-01
  0.28380E-01
  0.80935E-02
  0.12786E-01
  0.11895E-01
  0.13047E-01
  0.12006E-01
  0.13358E-01
  0.12016E-01
  0.10211E-01
  0.13962E-01
  0.13626E-01
  0.16931E-01
  0.16541E-01
  0.17863E-01
  0.16424E-01
  0.17700E-01
  0.18246E-01
  0.19002E-01
 -0.26673E-02
  0.24371E-01
 -0.43803E-01
  0.91286E-03
  0.85106E-02
 -0.12106E-01
  0.76405E-02
  0.98387E-02
  0.87056E-02
  0.82851E-02
  0.10540E-01
  0.96364E-02
  0.29485E-01
 -0.30434E-01
  0.15450E-02
  0.34405E-01
  0.52836E-02
  0.47047E-02
  0.14679E-01
  0.18936E-01
  0.10438E-01
  0.13450E-01
  0.41199E-02
  0.75624E-02
  0.76393E-02
  0.57416E-02
  0.13719E-01
  0.11276E-01
 -0.15170E-01
 -0.66059E-02
 -0.33526E-02
 -0.32716E-02
 -0.33741E-01
  0.98310E-02
  0.58209E-02
  0.13109E-01
  0.15311E-01
  0.12136E-01
  0.13152E-01
  0.12539E-01
  0.13182E-01
  0.12741E-01
  0.12821E-01
  0.13662E-01
  0.13097E-01
  0.11288E-01
  0.20182E-01
  0.20709E-01
  0.11258E-01
  0.85402E-02
 -0.26994E-01
  0.95339E-02
  0.10945E-01
  0.34299E-01
  0.33894E-01
  0.34233E-01
  0.33714E-01
  0.33727E-01
  0.10001E-01
  0.92614E-02
  0.13121E-01
  0.84626E-02
  0.92603E-02
  0.28878E-02
  0.21933E-01
  0.12701E-01
  0.11680E-01
 -0.31802E-02
 -0.98981E-02
 -0.13949E-01
  0.18836E-02
  0.42118E-02
  0.59047E-02
  0.35968E-02
  0.49115E-02
  0.36770E-02
  0.58136E-02
  0.47875E-02
  0.25179E-02
  0.39342E-02
  0.64317E-02
  0.85019E-02
  0.87229E-02
  0.10534E-01
  0.10659E-01
  0.13425E-01
  0.10698E-01
  0.90719E-02
  0.57938E-02
  0.63470E-02
 -0.16827E-01
  0.17296E-02
  0.33023E-02
 -0.19783E-01
 -0.13337E-01
  0.95156E-02
  0.28681E-03
  0.88631E-02
  0.69060E-02
 -0.65198E-02
  0.32938E-01
 -0.53637E-02
 -0.19767E-01
 -0.27320E-02
  0.61975E-02
  0.18818E-01
  0.35257E-01
  0.12330E-01
  0.98562E-02
 -0.10967E-01
  0.14979E-01
  0.56466E-02
 -0.21603E-01
 -0.12319E-02
  0.40777E-02
  0.10237E-01
  0.10901E-01
  0.21712E-02
  0.12353E-01
 -0.18657E-01
 -0.41542E-01
 -0.44146E-01
  0.62716E-02
 -0.18604E-02
  0.33697E-01
  0.15733E-01
  0.80243E-02
 -0.25430E-02
  0.25512E-01
  0.33960E-01
  0.22867E-01
 -0.37964E-01
  0.10481E-01
  0.13053E-01
  0.14017E-01
 -0.13402E-01
  0.35695E-02
  0.16226E-01
  0.61174E-02
 -0.37026E-01
  0.55039E-02
  0.15957E-01
  0.34439E-02
  0.41064E-01
  0.11239E-01
 -0.24615E-01
  0.22683E-01
 -0.15929E-02
  0.14464E-01
  0.13162E-01
  0.15644E-01
  0.42606E-02
  0.10162E-01
 -0.94515E-02
  0.31852E-02
  0.88145E-02
  0.29933E-01
  0.50268E-03
  0.21262E-02
  0.32451E-01
 -0.23478E-01
 -0.25812E-01
  0.18130E-02
  0.22129E-01
 -0.61432E-01
 -0.61128E-01
  0.56267E-02
  0.22061E-01
 -0.11297E-01
 -0.22583E-01
 -0.45575E-01
  0.10116E-01
  0.10747E-01
  0.30084E-01
  0.16844E-01
  0.45149E-02
 -0.13692E-01
  0.16514E-01
  0.14500E-01
  0.41794E-02
  0.13092E-01
  0.31874E-01
  0.73164E-02
  0.20992E-01
  0.31367E-01
  0.86941E-02
  0.59043E-02
  0.18634E-01
 -0.44921E-01
 -0.17314E-01
  0.88131E-02
 -0.17506E-01
  0.30886E-01
  0.70771E-02
  0.10380E-01
  0.14467E-01
  0.20582E-01
  0.57629E-02
  0.26718E-01
  0.22482E-01
  0.73413E-02
  0.21220E-01
  0.85631E-02
  0.15306E-01
 -0.38426E-02
  0.79673E-02
  0.26355E-01
  0.10892E-01
 -0.45895E-01
  0.14378E-01
  0.28997E-01
  0.59158E-02
 -0.32145E-01
  0.34495E-01
  0.12550E-01
  0.67554E-02
  0.67641E-02
  0.31124E-01
 -0.52521E-02
  0.21305E-01
  0.28354E-01
  0.10175E-02
  0.19990E-01
  0.25534E-01
  0.19625E-01
  0.36212E-01
  0.32709E-01
  0.24989E-01
 -0.95429E-02
  0.23504E-01
  0.66876E-02
 -0.17048E-02
 -0.22347E-01