# vtk DataFile Version 2.0
Unstructured Grid UFVM-ECOMOD
ASCII
DATASET UNSTRUCTURED_GRID
 POINTS         1724  float
  0.00000E+00  0.00000E+00  0.00000E+00
  0.40000E+01  0.00000E+00  0.00000E+00
  0.40000E+01  0.20000E+01  0.00000E+00
  0.00000E+00  0.20000E+01  0.00000E+00
  0.15750E+01  0.10287E+01  0.00000E+00
  0.15677E+01  0.97091E+00  0.00000E+00
  0.15461E+01  0.91674E+00  0.00000E+00
  0.15118E+01  0.86961E+00  0.00000E+00
  0.14667E+01  0.83248E+00  0.00000E+00
  0.14138E+01  0.80767E+00  0.00000E+00
  0.13563E+01  0.79675E+00  0.00000E+00
  0.12979E+01  0.80041E+00  0.00000E+00
  0.12423E+01  0.81842E+00  0.00000E+00
  0.11929E+01  0.84963E+00  0.00000E+00
  0.11529E+01  0.89210E+00  0.00000E+00
  0.11247E+01  0.94315E+00  0.00000E+00
  0.11102E+01  0.99958E+00  0.00000E+00
  0.11102E+01  0.10578E+01  0.00000E+00
  0.11247E+01  0.11143E+01  0.00000E+00
  0.11529E+01  0.11653E+01  0.00000E+00
  0.11929E+01  0.12078E+01  0.00000E+00
  0.12423E+01  0.12390E+01  0.00000E+00
  0.12979E+01  0.12570E+01  0.00000E+00
  0.13563E+01  0.12607E+01  0.00000E+00
  0.14138E+01  0.12497E+01  0.00000E+00
  0.14667E+01  0.12249E+01  0.00000E+00
  0.15118E+01  0.11878E+01  0.00000E+00
  0.15461E+01  0.11407E+01  0.00000E+00
  0.15677E+01  0.10865E+01  0.00000E+00
  0.10000E+00  0.00000E+00  0.00000E+00
  0.20000E+00  0.00000E+00  0.00000E+00
  0.30000E+00  0.00000E+00  0.00000E+00
  0.40000E+00  0.00000E+00  0.00000E+00
  0.50000E+00  0.00000E+00  0.00000E+00
  0.60000E+00  0.00000E+00  0.00000E+00
  0.70000E+00  0.00000E+00  0.00000E+00
  0.80000E+00  0.00000E+00  0.00000E+00
  0.90000E+00  0.00000E+00  0.00000E+00
  0.10000E+01  0.00000E+00  0.00000E+00
  0.11000E+01  0.00000E+00  0.00000E+00
  0.12000E+01  0.00000E+00  0.00000E+00
  0.13000E+01  0.00000E+00  0.00000E+00
  0.14000E+01  0.00000E+00  0.00000E+00
  0.15000E+01  0.00000E+00  0.00000E+00
  0.16000E+01  0.00000E+00  0.00000E+00
  0.17000E+01  0.00000E+00  0.00000E+00
  0.18000E+01  0.00000E+00  0.00000E+00
  0.19000E+01  0.00000E+00  0.00000E+00
  0.20000E+01  0.00000E+00  0.00000E+00
  0.21000E+01  0.00000E+00  0.00000E+00
  0.22000E+01  0.00000E+00  0.00000E+00
  0.23000E+01  0.00000E+00  0.00000E+00
  0.24000E+01  0.00000E+00  0.00000E+00
  0.25000E+01  0.00000E+00  0.00000E+00
  0.26000E+01  0.00000E+00  0.00000E+00
  0.27000E+01  0.00000E+00  0.00000E+00
  0.28000E+01  0.00000E+00  0.00000E+00
  0.29000E+01  0.00000E+00  0.00000E+00
  0.30000E+01  0.00000E+00  0.00000E+00
  0.31000E+01  0.00000E+00  0.00000E+00
  0.32000E+01  0.00000E+00  0.00000E+00
  0.33000E+01  0.00000E+00  0.00000E+00
  0.34000E+01  0.00000E+00  0.00000E+00
  0.35000E+01  0.00000E+00  0.00000E+00
  0.36000E+01  0.00000E+00  0.00000E+00
  0.37000E+01  0.00000E+00  0.00000E+00
  0.38000E+01  0.00000E+00  0.00000E+00
  0.39000E+01  0.00000E+00  0.00000E+00
  0.40000E+01  0.10000E+00  0.00000E+00
  0.40000E+01  0.20000E+00  0.00000E+00
  0.40000E+01  0.30000E+00  0.00000E+00
  0.40000E+01  0.40000E+00  0.00000E+00
  0.40000E+01  0.50000E+00  0.00000E+00
  0.40000E+01  0.60000E+00  0.00000E+00
  0.40000E+01  0.70000E+00  0.00000E+00
  0.40000E+01  0.80000E+00  0.00000E+00
  0.40000E+01  0.90000E+00  0.00000E+00
  0.40000E+01  0.10000E+01  0.00000E+00
  0.40000E+01  0.11000E+01  0.00000E+00
  0.40000E+01  0.12000E+01  0.00000E+00
  0.40000E+01  0.13000E+01  0.00000E+00
  0.40000E+01  0.14000E+01  0.00000E+00
  0.40000E+01  0.15000E+01  0.00000E+00
  0.40000E+01  0.16000E+01  0.00000E+00
  0.40000E+01  0.17000E+01  0.00000E+00
  0.40000E+01  0.18000E+01  0.00000E+00
  0.40000E+01  0.19000E+01  0.00000E+00
  0.39000E+01  0.20000E+01  0.00000E+00
  0.38000E+01  0.20000E+01  0.00000E+00
  0.37000E+01  0.20000E+01  0.00000E+00
  0.36000E+01  0.20000E+01  0.00000E+00
  0.35000E+01  0.20000E+01  0.00000E+00
  0.34000E+01  0.20000E+01  0.00000E+00
  0.33000E+01  0.20000E+01  0.00000E+00
  0.32000E+01  0.20000E+01  0.00000E+00
  0.31000E+01  0.20000E+01  0.00000E+00
  0.30000E+01  0.20000E+01  0.00000E+00
  0.29000E+01  0.20000E+01  0.00000E+00
  0.28000E+01  0.20000E+01  0.00000E+00
  0.27000E+01  0.20000E+01  0.00000E+00
  0.26000E+01  0.20000E+01  0.00000E+00
  0.25000E+01  0.20000E+01  0.00000E+00
  0.24000E+01  0.20000E+01  0.00000E+00
  0.23000E+01  0.20000E+01  0.00000E+00
  0.22000E+01  0.20000E+01  0.00000E+00
  0.21000E+01  0.20000E+01  0.00000E+00
  0.20000E+01  0.20000E+01  0.00000E+00
  0.19000E+01  0.20000E+01  0.00000E+00
  0.18000E+01  0.20000E+01  0.00000E+00
  0.17000E+01  0.20000E+01  0.00000E+00
  0.16000E+01  0.20000E+01  0.00000E+00
  0.15000E+01  0.20000E+01  0.00000E+00
  0.14000E+01  0.20000E+01  0.00000E+00
  0.13000E+01  0.20000E+01  0.00000E+00
  0.12000E+01  0.20000E+01  0.00000E+00
  0.11000E+01  0.20000E+01  0.00000E+00
  0.10000E+01  0.20000E+01  0.00000E+00
  0.90000E+00  0.20000E+01  0.00000E+00
  0.80000E+00  0.20000E+01  0.00000E+00
  0.70000E+00  0.20000E+01  0.00000E+00
  0.60000E+00  0.20000E+01  0.00000E+00
  0.50000E+00  0.20000E+01  0.00000E+00
  0.40000E+00  0.20000E+01  0.00000E+00
  0.30000E+00  0.20000E+01  0.00000E+00
  0.20000E+00  0.20000E+01  0.00000E+00
  0.10000E+00  0.20000E+01  0.00000E+00
  0.00000E+00  0.19000E+01  0.00000E+00
  0.00000E+00  0.18000E+01  0.00000E+00
  0.00000E+00  0.17000E+01  0.00000E+00
  0.00000E+00  0.16000E+01  0.00000E+00
  0.00000E+00  0.15000E+01  0.00000E+00
  0.00000E+00  0.14000E+01  0.00000E+00
  0.00000E+00  0.13000E+01  0.00000E+00
  0.00000E+00  0.12000E+01  0.00000E+00
  0.00000E+00  0.11000E+01  0.00000E+00
  0.00000E+00  0.10000E+01  0.00000E+00
  0.00000E+00  0.90000E+00  0.00000E+00
  0.00000E+00  0.80000E+00  0.00000E+00
  0.00000E+00  0.70000E+00  0.00000E+00
  0.00000E+00  0.60000E+00  0.00000E+00
  0.00000E+00  0.50000E+00  0.00000E+00
  0.00000E+00  0.40000E+00  0.00000E+00
  0.00000E+00  0.30000E+00  0.00000E+00
  0.00000E+00  0.20000E+00  0.00000E+00
  0.00000E+00  0.10000E+00  0.00000E+00
  0.15713E+01  0.99981E+00  0.00000E+00
  0.15569E+01  0.94382E+00  0.00000E+00
  0.15290E+01  0.89318E+00  0.00000E+00
  0.14892E+01  0.85104E+00  0.00000E+00
  0.14402E+01  0.82007E+00  0.00000E+00
  0.13850E+01  0.80221E+00  0.00000E+00
  0.13271E+01  0.79858E+00  0.00000E+00
  0.12701E+01  0.80941E+00  0.00000E+00
  0.12176E+01  0.83402E+00  0.00000E+00
  0.11729E+01  0.87086E+00  0.00000E+00
  0.11388E+01  0.91762E+00  0.00000E+00
  0.11175E+01  0.97136E+00  0.00000E+00
  0.11102E+01  0.10287E+01  0.00000E+00
  0.11175E+01  0.10860E+01  0.00000E+00
  0.11388E+01  0.11398E+01  0.00000E+00
  0.11729E+01  0.11865E+01  0.00000E+00
  0.12176E+01  0.12234E+01  0.00000E+00
  0.12701E+01  0.12480E+01  0.00000E+00
  0.13271E+01  0.12588E+01  0.00000E+00
  0.13850E+01  0.12552E+01  0.00000E+00
  0.14402E+01  0.12373E+01  0.00000E+00
  0.14892E+01  0.12064E+01  0.00000E+00
  0.15290E+01  0.11642E+01  0.00000E+00
  0.15569E+01  0.11136E+01  0.00000E+00
  0.15713E+01  0.10576E+01  0.00000E+00
  0.15994E+01  0.10133E+01  0.00000E+00
  0.15863E+01  0.11089E+01  0.00000E+00
  0.25478E+01  0.10053E+00  0.00000E+00
  0.25434E+01  0.19142E+01  0.00000E+00
  0.11238E+01  0.89266E+00  0.00000E+00
  0.11061E+01  0.11423E+01  0.00000E+00
  0.15575E+01  0.89126E+00  0.00000E+00
  0.10894E+01  0.97917E+00  0.00000E+00
  0.15393E+01  0.11910E+01  0.00000E+00
  0.11627E+01  0.12175E+01  0.00000E+00
  0.14962E+01  0.82262E+00  0.00000E+00
  0.29512E+01  0.95010E-01  0.00000E+00
  0.29494E+01  0.19117E+01  0.00000E+00
  0.39186E+01  0.10466E+01  0.00000E+00
  0.11913E+01  0.82197E+00  0.00000E+00
  0.12788E+01  0.78594E+00  0.00000E+00
  0.21500E+01  0.86600E-01  0.00000E+00
  0.21472E+01  0.19005E+01  0.00000E+00
  0.14041E+01  0.78007E+00  0.00000E+00
  0.14641E+01  0.12550E+01  0.00000E+00
  0.13764E+01  0.12826E+01  0.00000E+00
  0.99450E-01  0.63780E+00  0.00000E+00
  0.92450E-01  0.13422E+01  0.00000E+00
  0.12473E+01  0.12677E+01  0.00000E+00
  0.65677E+00  0.19154E+01  0.00000E+00
  0.86110E-01  0.10467E+01  0.00000E+00
  0.75000E+00  0.86600E-01  0.00000E+00
  0.33379E+01  0.88030E-01  0.00000E+00
  0.33490E+01  0.19201E+01  0.00000E+00
  0.18500E+01  0.86600E-01  0.00000E+00
  0.18441E+01  0.19006E+01  0.00000E+00
  0.38922E+01  0.64055E+00  0.00000E+00
  0.39154E+01  0.13500E+01  0.00000E+00
  0.10564E+01  0.85180E-01  0.00000E+00
  0.94817E+00  0.19249E+01  0.00000E+00
  0.15421E+01  0.85450E-01  0.00000E+00
  0.15479E+01  0.19161E+01  0.00000E+00
  0.12386E+01  0.19130E+01  0.00000E+00
  0.45294E+00  0.85030E-01  0.00000E+00
  0.86890E-01  0.16531E+01  0.00000E+00
  0.36495E+01  0.78620E-01  0.00000E+00
  0.36510E+01  0.19107E+01  0.00000E+00
  0.10846E+01  0.10423E+01  0.00000E+00
  0.15860E+01  0.94842E+00  0.00000E+00
  0.13392E+01  0.77093E+00  0.00000E+00
  0.13108E+01  0.12864E+01  0.00000E+00
  0.87300E-01  0.35008E+00  0.00000E+00
  0.34468E+00  0.19176E+01  0.00000E+00
  0.39135E+01  0.16499E+01  0.00000E+00
  0.39252E+01  0.34254E+00  0.00000E+00
  0.13680E+01  0.88360E-01  0.00000E+00
  0.88350E-01  0.84594E+00  0.00000E+00
  0.23513E+01  0.77830E-01  0.00000E+00
  0.23488E+01  0.19154E+01  0.00000E+00
  0.27481E+01  0.80910E-01  0.00000E+00
  0.31480E+01  0.84140E-01  0.00000E+00
  0.31513E+01  0.19149E+01  0.00000E+00
  0.27502E+01  0.19198E+01  0.00000E+00
  0.39134E+01  0.85000E+00  0.00000E+00
  0.25071E+00  0.86200E-01  0.00000E+00
  0.91130E-01  0.18412E+01  0.00000E+00
  0.38461E+01  0.84360E-01  0.00000E+00
  0.38408E+01  0.19092E+01  0.00000E+00
  0.97440E-01  0.15849E+00  0.00000E+00
  0.15988E+01  0.10458E+01  0.00000E+00
  0.16261E+01  0.10305E+01  0.00000E+00
  0.16281E+01  0.99836E+00  0.00000E+00
  0.16554E+01  0.10148E+01  0.00000E+00
  0.16578E+01  0.98164E+00  0.00000E+00
  0.16863E+01  0.99914E+00  0.00000E+00
  0.16884E+01  0.96239E+00  0.00000E+00
  0.17222E+01  0.98417E+00  0.00000E+00
  0.17231E+01  0.93952E+00  0.00000E+00
  0.17605E+01  0.96435E+00  0.00000E+00
  0.17576E+01  0.10098E+01  0.00000E+00
  0.17991E+01  0.98970E+00  0.00000E+00
  0.17625E+01  0.91931E+00  0.00000E+00
[...]
 POINT_DATA         1724
  
 SCALARS WL      float 1
 LOOKUP_TABLE default
  0.22089E-01
  0.15679E-02
  0.16455E-02
  0.32854E-01
 -0.36628E-01
 -0.29522E-01
 -0.18830E-01
 -0.66176E-02
 -0.17098E-03
  0.19993E-03
  0.21946E-02
 -0.62250E-02
 -0.28063E-02
  0.68999E-02
  0.23949E-01
  0.36044E-01
  0.43273E-01
  0.43751E-01
  0.37529E-01
  0.25972E-01
  0.79557E-02
 -0.13218E-01
 -0.35796E-01
 -0.57064E-01
 -0.62944E-01
 -0.54695E-01
 -0.50006E-01
 -0.45967E-01
 -0.40567E-01
  0.21810E-01
  0.21363E-01
  0.20789E-01
  0.20063E-01
  0.19106E-01
  0.17869E-01
  0.16339E-01
  0.14524E-01
  0.12265E-01
  0.96196E-02
  0.71877E-02
  0.47403E-02
  0.26407E-02
  0.16863E-02
  0.14773E-02
  0.19510E-02
  0.27472E-02
  0.35374E-02
  0.44409E-02
  0.53465E-02
  0.62742E-02
  0.69536E-02
  0.74737E-02
  0.72111E-02
  0.65534E-02
  0.54604E-02
  0.44136E-02
  0.35349E-02
  0.28082E-02
  0.26239E-02
  0.27662E-02
  0.31704E-02
  0.39641E-02
  0.46623E-02
  0.53218E-02
  0.53748E-02
  0.48081E-02
  0.40791E-02
  0.28063E-02
  0.00000E+00
  0.00000E+00
  0.00000E+00
  0.00000E+00
  0.00000E+00
  0.00000E+00
  0.00000E+00
  0.00000E+00
  0.00000E+00
  0.00000E+00
  0.00000E+00
  0.00000E+00
  0.00000E+00
  0.00000E+00
  0.00000E+00
  0.00000E+00
  0.00000E+00
  0.00000E+00
  0.00000E+00
  0.28798E-02
  0.53610E-02
  0.84504E-02
  0.11238E-01
  0.13565E-01
  0.15371E-01
  0.15778E-01
  0.14999E-01
  0.13261E-01
  0.11318E-01
  0.10253E-01
  0.10767E-01
  0.12389E-01
  0.14632E-01
  0.16594E-01
  0.17876E-01
  0.18403E-01
  0.18339E-01
  0.17838E-01
  0.16916E-01
  0.15717E-01
  0.14310E-01
  0.12890E-01
  0.11920E-01
  0.11798E-01
  0.12667E-01
  0.14500E-01
  0.16985E-01
  0.19769E-01
  0.22596E-01
  0.25296E-01
  0.27676E-01
  0.29751E-01
  0.31499E-01
  0.32955E-01
  0.33964E-01
  0.34401E-01
  0.34237E-01
  0.33572E-01
  0.32581E-01
  0.32038E-01
  0.31364E-01
  0.30498E-01
  0.29770E-01
  0.28846E-01
  0.28080E-01
  0.27361E-01
  0.26724E-01
  0.26125E-01
  0.25543E-01
  0.24983E-01
  0.24396E-01
  0.23874E-01
  0.23389E-01
  0.22964E-01
  0.22615E-01
  0.22354E-01
  0.22181E-01
 -0.33807E-01
 -0.24459E-01
 -0.12099E-01
 -0.19491E-02
 -0.44971E-03
  0.21420E-02
 -0.19494E-02
 -0.77958E-02
 -0.11017E-03
  0.15975E-01
  0.30743E-01
  0.40956E-01
  0.44265E-01
  0.41896E-01
  0.32748E-01
  0.17294E-01
 -0.16388E-02
 -0.23822E-01
 -0.47766E-01
 -0.61689E-01
 -0.60107E-01
 -0.51580E-01
 -0.48718E-01
 -0.42826E-01
 -0.38661E-01
 -0.34460E-01
 -0.41217E-01
  0.61964E-02
  0.15803E-01
  0.28848E-01
  0.35198E-01
 -0.14782E-01
  0.41969E-01
 -0.49486E-01
  0.15883E-01
 -0.17044E-02
  0.34143E-02
  0.10586E-01
 -0.66837E-02
  0.55762E-02
 -0.60344E-02
  0.63741E-02
  0.18165E-01
  0.11991E-02
 -0.55380E-01
 -0.54909E-01
  0.23926E-01
  0.28639E-01
 -0.14072E-01
  0.30621E-01
  0.26415E-01
  0.15543E-01
  0.49269E-02
  0.15621E-01
  0.39168E-02
  0.14586E-01
 -0.79327E-02
  0.28301E-02
  0.84307E-02
  0.24016E-01
  0.19233E-02
  0.11397E-01
  0.15808E-01
  0.19655E-01
  0.31458E-01
  0.53814E-02
  0.99855E-02
  0.43870E-01
 -0.25961E-01
  0.82425E-03
 -0.36323E-01
  0.22581E-01
  0.34198E-01
  0.41134E-02
  0.20182E-02
  0.22665E-02
  0.25184E-01
  0.73294E-02
  0.18288E-01
  0.42477E-02
  0.36005E-02
  0.14321E-01
  0.11212E-01
 -0.12107E-01
  0.21151E-01
  0.32953E-01
  0.37116E-02
  0.43796E-02
  0.21993E-01
 -0.37069E-01
 -0.35627E-01
 -0.33427E-01
 -0.35331E-01
 -0.32775E-01
 -0.34948E-01
 -0.31505E-01
 -0.33589E-01
 -0.28762E-01
 -0.30471E-01
 -0.33867E-01
 -0.29976E-01
 -0.24858E-01
 -0.31073E-01
 -0.26831E-01
 -0.25140E-01
 -0.21766E-01
 -0.17894E-01
 -0.15997E-01
 -0.20513E-01
 -0.16210E-01
 -0.21953E-01
 -0.19276E-01
 -0.25766E-01
 -0.23661E-01
 -0.29700E-01
 -0.25636E-01
 -0.10372E-01
 -0.28758E-01
 -0.21897E-01
 -0.18456E-01
 -0.13286E-01
 -0.30715E-01
 -0.94568E-02
 -0.54238E-02
 -0.60602E-02
 -0.10479E-02
  0.59079E-04
  0.23383E-02
  0.14001E-02
  0.25298E-02
  0.48492E-02
  0.32909E-02
  0.83798E-04
 -0.12736E-02
  0.40463E-02
 -0.12144E-02
 -0.81478E-02
 -0.72980E-02
  0.77735E-03
 -0.36349E-02
  0.38932E-02
  0.69731E-03
 -0.60774E-02
 -0.12194E-02
  0.34433E-02
 -0.55705E-02
 -0.12233E-02
 -0.24970E-02
 -0.21354E-01
  0.12743E-03
  0.13772E-02
 -0.19116E-02
 -0.26180E-01
 -0.26526E-01
 -0.19017E-01
 -0.18496E-01
 -0.10557E-01
 -0.96662E-02
  0.21340E-02
  0.20934E-03
  0.48360E-02
 -0.38984E-02
 -0.14071E-01
 -0.68045E-02
 -0.80725E-02
 -0.34033E-02
 -0.26464E-02
  0.42356E-02
  0.73829E-02
 -0.26627E-03
  0.14191E-02
 -0.21118E-01
  0.16583E-02
  0.33488E-02
  0.26288E-02
  0.38533E-02
  0.50271E-02
  0.49329E-02
  0.63151E-02
  0.55745E-02
  0.49588E-02
  0.54111E-02
 -0.29866E-02
  0.64745E-03
  0.22267E-02
  0.40150E-02
  0.56690E-02
 -0.56643E-03
 -0.16625E-01
  0.51984E-02
  0.56577E-02
 -0.11359E-01
  0.55938E-02
  0.59776E-02
  0.91609E-02
  0.10162E-01
  0.11463E-01
  0.54156E-02
  0.60657E-02
  0.60325E-02
  0.67283E-02
  0.62332E-02
  0.78124E-02
  0.27388E-02
  0.65261E-02
  0.74224E-02
  0.72292E-02
  0.80573E-02
  0.75013E-02
  0.85549E-02
  0.89379E-02
  0.98212E-02
  0.10184E-01
  0.11388E-01
  0.11976E-01
  0.13470E-01
  0.12421E-01
  0.14545E-01
  0.15863E-01
  0.16796E-01
  0.18460E-01
  0.18984E-01
  0.20909E-01
  0.20958E-01
  0.22998E-01
  0.22579E-01
  0.24671E-01
  0.23923E-01
  0.25905E-01
  0.24943E-01
  0.26681E-01
  0.23319E-01
  0.25648E-01
  0.27154E-01
  0.26095E-01
  0.27416E-01
  0.28630E-01
  0.28630E-01
  0.29929E-01
  0.29693E-01
  0.30997E-01
  0.30534E-01
  0.31736E-01
  0.31138E-01
  0.32156E-01
  0.31500E-01
  0.32243E-01
  0.31627E-01
  0.32019E-01
  0.31558E-01
  0.31543E-01
  0.31017E-01
  0.29345E-01
  0.31324E-01
  0.30885E-01
  0.19250E-01
  0.26467E-01
  0.25208E-01
  0.30961E-01
  0.31307E-01
  0.30164E-01
  0.29873E-01
  0.28855E-01
  0.28241E-01
  0.27065E-01
  0.25964E-01
  0.24781E-01
  0.23016E-01
  0.25612E-01
  0.24487E-01
  0.13311E-01
  0.31578E-01
  0.31157E-01
  0.31430E-01
  0.29686E-01
  0.26980E-01
  0.33110E-01
  0.22094E-01
  0.19547E-01
  0.27956E-01
  0.31485E-01
  0.31667E-01
  0.24899E-01
  0.23984E-01
  0.79127E-02
  0.19075E-01
  0.15953E-01
  0.24200E-01
  0.23035E-01
  0.25903E-01
  0.31278E-01
  0.31450E-01
  0.30801E-01
 -0.37034E-01
  0.23415E-01
  0.23113E-01
  0.22374E-01
  0.22273E-01
  0.21406E-01
  0.48193E-02
  0.31908E-01
  0.21490E-01
  0.12295E-01
 -0.62012E-02
 -0.11775E-01
  0.17374E-01
  0.15821E-01
  0.11631E-01
  0.12465E-01
  0.76526E-02
  0.92809E-02
  0.44592E-02
  0.67936E-02
  0.23883E-02
 -0.10673E-02
 -0.36860E-02
  0.14466E-02
 -0.28772E-02
 -0.91420E-02
 -0.71833E-02
 -0.12689E-02
 -0.43235E-02
  0.94665E-03
 -0.59993E-03
 -0.66139E-02
 -0.16935E-02
 -0.79847E-02
 -0.25107E-02
  0.27378E-02
  0.26352E-02
  0.68194E-02
  0.74134E-02
  0.10423E-01
  0.11286E-01
  0.13529E-01
  0.14700E-01
  0.12262E-01
  0.15627E-01
  0.17154E-01
  0.17819E-01
  0.18625E-01
  0.18982E-01
  0.16023E-01
  0.32622E-02
  0.87787E-02
  0.76342E-02
  0.93110E-02
  0.19425E-01
  0.19290E-01
  0.24424E-01
  0.10001E-01
  0.20573E-01
  0.20369E-01
  0.11829E-01
  0.18253E-01
  0.17433E-01
  0.18103E-01
  0.15107E-01
  0.15959E-01
  0.11669E-01
 -0.14396E-01
 -0.15517E-01
  0.12785E-01
  0.74347E-02
  0.19262E-02
  0.33540E-02
 -0.21732E-02
  0.31394E-01
  0.75185E-02
  0.56427E-02
 -0.13046E-01
 -0.16815E-02
  0.96411E-02
  0.12105E-01
  0.13204E-01
  0.14378E-01
  0.14706E-01
  0.14747E-01
  0.14520E-01
  0.14247E-01
  0.13764E-01
  0.13210E-01
  0.13602E-01
  0.12588E-01
  0.11857E-01
  0.11346E-01
  0.96621E-02
  0.80789E-02
  0.55969E-02
  0.77544E-02
  0.28578E-02
 -0.52015E-03
  0.60216E-02
  0.70177E-03
  0.56320E-02
 -0.19682E-03
  0.31833E-02
 -0.79226E-03
  0.13916E-01
 -0.48587E-02
  0.66701E-03
  0.22257E-01
  0.21613E-01
 -0.15384E-01
  0.39104E-02
  0.13052E-01
  0.98040E-02
  0.21477E-01
  0.84808E-02
  0.48396E-02
 -0.13224E-01
 -0.16890E-01
  0.17828E-02
  0.25807E-02
  0.11293E-01
  0.55184E-02
  0.32007E-01
  0.32387E-01
  0.10341E-01
  0.10206E-01
  0.34282E-02
  0.64088E-02
 -0.45400E-03
 -0.75892E-02
 -0.23071E-01
 -0.23977E-01
 -0.85956E-02
  0.30928E-01
  0.30119E-01
 -0.22304E-02
 -0.15166E-01
 -0.75263E-04
 -0.65068E-02
 -0.52693E-02
  0.15807E-02
 -0.24595E-01
 -0.25892E-01
  0.32530E-02
  0.66178E-02
  0.67263E-02
 -0.74838E-03
  0.57577E-02
  0.19512E-01
  0.19082E-01
  0.11502E-01
  0.22456E-02
  0.17963E-01
  0.12093E-01
 -0.58181E-02
  0.34833E-02
 -0.13195E-02
  0.57485E-02
 -0.16063E-01
 -0.10010E-01
  0.44059E-02
  0.17986E-01
 -0.88328E-02
 -0.12862E-01
  0.13044E-01
  0.22292E-01
  0.78080E-02
 -0.26315E-01
  0.59419E-02
  0.21771E-01
  0.42968E-02
  0.30075E-01
  0.29290E-01
  0.29299E-01
  0.28472E-01
  0.28461E-01
  0.28502E-01
  0.27681E-01
  0.28024E-02
  0.31182E-01
  0.14548E-02
  0.55198E-02
  0.13294E-01
  0.97789E-02
  0.83761E-02
  0.40823E-02
  0.10446E-01
 -0.15565E-01
  0.32652E-01
  0.32859E-01
  0.19858E-01
  0.18019E-01
  0.17578E-01
  0.22899E-01
 -0.32274E-01
 -0.30673E-01
  0.87960E-02
 -0.13984E-01
 -0.20575E-01
  0.14434E-02
  0.34872E-02
  0.39318E-04
  0.19457E-02
 -0.44655E-03
  0.65612E-03
  0.21662E-02
  0.14556E-02
  0.18780E-01
  0.17101E-01
  0.15946E-01
  0.15227E-01
  0.14110E-01
  0.13216E-01
  0.43703E-02
 -0.25630E-01
  0.97130E-02
  0.30195E-01
  0.31082E-01
  0.11300E-01
 -0.16367E-01
  0.57297E-02
  0.12159E-01
  0.65316E-02
  0.95325E-02
  0.54783E-02
  0.57096E-02
  0.72657E-02
 -0.49763E-02
  0.11133E-01
  0.12233E-02
 -0.29115E-01
 -0.10197E-01
  0.70956E-02
  0.27699E-01
  0.26901E-01
  0.26978E-01
  0.26265E-01
 -0.87230E-02
  0.64471E-02
 -0.39610E-01
 -0.37418E-01
 -0.27945E-01
 -0.33375E-01
  0.22864E-01
  0.23488E-01
  0.79367E-02
 -0.20302E-01
 -0.24046E-01
  0.97866E-02
  0.58228E-02
  0.65063E-02
  0.28783E-02
  0.24942E-02
  0.34438E-02
  0.33520E-02
 -0.41002E-01
  0.32033E-01
  0.30413E-01
  0.29946E-01
  0.71255E-02
  0.63979E-02
  0.22625E-01
  0.10063E-01
  0.75542E-02
  0.81915E-02
 -0.82117E-03
 -0.25340E-02
  0.31842E-02
  0.31257E-02
  0.12141E-01
  0.13295E-01
 -0.24526E-01
 -0.34173E-01
 -0.34922E-01
 -0.25835E-01
 -0.16292E-01
 -0.97162E-02
  0.11687E-01
  0.97168E-02
  0.11178E-01
 -0.83773E-03
  0.76000E-02
  0.17684E-02
  0.30290E-01
  0.31249E-01
  0.57314E-02
  0.37082E-02
  0.39046E-02
  0.42728E-02
  0.88589E-02
  0.33243E-01
  0.33252E-01
  0.32746E-01
  0.13653E-01
  0.13514E-01
  0.14563E-01
  0.29395E-01
 -0.14357E-01
 -0.12605E-01
 -0.18066E-01
  0.29208E-01
  0.28988E-01
  0.28369E-01
  0.27148E-01
  0.14895E-02
 -0.22256E-02
 -0.23857E-02
  0.10822E-01
  0.89078E-02
  0.39401E-02
  0.89449E-02
  0.40204E-02
 -0.32570E-01
 -0.40098E-01
 -0.38441E-01
  0.26110E-01
  0.25535E-01
  0.25798E-01
  0.25125E-01
  0.14402E-01
  0.21055E-01
  0.21333E-01
  0.32505E-02
  0.26449E-01
  0.25096E-01
  0.27890E-01
 -0.88543E-02
 -0.83928E-02
  0.43901E-02
  0.45172E-02
  0.33222E-02
  0.46964E-02
  0.16658E-01
  0.18713E-01
  0.20993E-01
  0.18451E-01
  0.20704E-01
 -0.42026E-02
  0.30895E-01
  0.18306E-01
  0.15957E-01
 -0.41719E-01
 -0.43885E-01
  0.26724E-02
  0.41125E-02
  0.30363E-01
  0.71850E-02
  0.12139E-01
 -0.23283E-01
 -0.26762E-01
 -0.39825E-01
 -0.28963E-01
 -0.18987E-01
 -0.18981E-01
 -0.12464E-01
 -0.61419E-02
  0.13585E-01
  0.11712E-01
  0.11376E-01
  0.93200E-02
  0.86549E-02
  0.69831E-02
  0.76792E-02
  0.34765E-02
  0.50350E-02
  0.59225E-02
  0.61807E-02
  0.24815E-01
  0.24452E-01
  0.35473E-02
  0.32255E-02
  0.37567E-02
 -0.62653E-02
  0.20714E-01
  0.16606E-02
 -0.39545E-02
  0.20607E-01
  0.97201E-02
  0.82004E-02
  0.11930E-01
  0.30890E-02
 -0.19485E-01
 -0.34428E-02
  0.84980E-03
 -0.40154E-01
 -0.28517E-01
 -0.16941E-01
 -0.98051E-02
 -0.67037E-02
 -0.14701E-01
 -0.21116E-02
 -0.61626E-02
  0.35027E-02
  0.13398E-02
  0.95721E-02
  0.89409E-02
  0.15842E-01
  0.15126E-01
  0.20124E-01
  0.21719E-01
  0.24416E-01
  0.26493E-01
  0.27838E-01
  0.30098E-01
  0.29297E-01
  0.32807E-01
  0.32355E-01
  0.34622E-01
  0.33587E-01
  0.35212E-01
  0.36666E-01
  0.36619E-01
  0.38442E-01
  0.37543E-01
  0.39495E-01
  0.37883E-01
  0.36214E-01
  0.36027E-01
  0.37606E-01
  0.35219E-01
  0.35991E-01
  0.33901E-01
  0.34139E-01
  0.36190E-01
  0.33742E-01
  0.31851E-01
  0.30833E-01
  0.35763E-01
  0.34697E-01
  0.29349E-01
  0.27752E-01
  0.28859E-01
  0.25180E-01
  0.24586E-01
  0.21681E-01
  0.38472E-01
  0.31933E-01
  0.33963E-01
  0.19374E-01
  0.17219E-01
  0.19329E-01
  0.15658E-01
  0.12531E-01
  0.12158E-01
  0.85127E-02
  0.93576E-02
  0.60291E-02
  0.76602E-02
  0.53044E-02
  0.70159E-02
  0.18930E-01
  0.32632E-01
  0.30322E-01
  0.22426E-01
  0.33274E-01
  0.31809E-01
  0.38238E-01
  0.34807E-01
  0.27843E-01
  0.74607E-02
  0.21939E-01
  0.21549E-01
 -0.85780E-02
  0.20432E-02
 -0.40054E-01
  0.20158E-02
 -0.13374E-02
  0.79563E-02
 -0.46628E-01
  0.43421E-02
  0.43287E-02
  0.61466E-02
  0.77043E-02
  0.72557E-02
  0.33313E-02
  0.96779E-03
 -0.50257E-03
  0.99292E-02
  0.14817E-02
  0.48637E-02
  0.37395E-01
  0.95180E-02
  0.14054E-01
  0.55048E-02
  0.32239E-02
  0.14247E-01
  0.37852E-02
  0.14821E-02
 -0.10830E-02
 -0.38034E-01
  0.60259E-02
  0.33837E-01
  0.40135E-01
 -0.72902E-03
 -0.52596E-01
 -0.24722E-02
  0.23584E-01
  0.22927E-01
  0.29135E-02
  0.31319E-01
  0.60927E-02
  0.68545E-02
  0.89195E-02
 -0.21194E-01
 -0.20786E-01
 -0.21962E-01
  0.25700E-01
  0.29783E-01
 -0.50694E-01
  0.10041E-01
  0.32320E-01
 -0.85372E-02
 -0.15722E-01
 -0.35073E-03
  0.66232E-02
  0.25040E-02
  0.10878E-01
  0.26730E-01
  0.23386E-01
  0.22876E-01
  0.66510E-02
  0.73024E-02
  0.65157E-02
  0.69551E-02
  0.33618E-01
  0.15209E-01
  0.14881E-01
 -0.40067E-02
  0.26237E-01
  0.28502E-01
 -0.45136E-02
  0.76012E-02
  0.56913E-02
 -0.90640E-04
  0.40457E-02
  0.66693E-02
  0.68044E-02
 -0.16565E-01
 -0.15618E-01
 -0.47044E-01
 -0.42085E-01
  0.10795E-01
  0.11316E-01
  0.12653E-01
  0.31578E-01
  0.30026E-01
  0.32186E-01
  0.14560E-01
  0.11850E-01
  0.22225E-02
 -0.13160E-01
 -0.22843E-01
  0.11438E-01
  0.38232E-01
  0.33438E-01
  0.32601E-01
  0.66791E-02
 -0.50710E-01
  0.32297E-01
  0.94465E-02
  0.14765E-01
  0.14044E-01
  0.31234E-02
  0.12947E-01
  0.31376E-02
  0.33879E-02
  0.48041E-02
  0.20614E-01
  0.42605E-02
  0.72477E-02
  0.21184E-02
  0.23760E-03
  0.11258E-01
 -0.50501E-01
 -0.15807E-01
 -0.18577E-01
 -0.14379E-01
 -0.20018E-01
  0.39653E-02
 -0.19481E-02
  0.27520E-01
 -0.13824E-01
  0.80780E-02
  0.76131E-02
  0.84112E-02
  0.35837E-01
  0.37093E-02
  0.14650E-01
  0.24561E-01
 -0.95803E-02
 -0.14658E-01
  0.13102E-01
  0.60692E-02
 -0.38982E-01
  0.31019E-01
  0.31623E-01
  0.40596E-01
  0.41438E-01
  0.39727E-01
  0.41144E-01
  0.39376E-01
  0.17787E-02
  0.23411E-01
  0.59081E-02
  0.43618E-01
  0.23120E-02
  0.26841E-02
  0.20583E-01
  0.22832E-01
 -0.50002E-02
 -0.71263E-02
  0.25780E-03
 -0.24816E-02
 -0.10814E-01
  0.51014E-02
  0.17145E-01
 -0.11917E-02
 -0.48835E-02
 -0.66888E-02
 -0.39826E-02
  0.18465E-01
  0.80599E-02
  0.70864E-02
  0.66290E-02
  0.27794E-01
  0.42763E-01
  0.64593E-02
  0.10107E-01
  0.98016E-02
  0.27510E-02
  0.54435E-02
  0.66616E-02
  0.13189E-01
 -0.26252E-02
 -0.23839E-01
  0.10746E-02
  0.46792E-02
 -0.10461E-02
 -0.46030E-01
 -0.29838E-01
 -0.38264E-01
  0.31817E-01
  0.30380E-01
  0.32763E-01
  0.57017E-02
 -0.31093E-01
 -0.27469E-01
 -0.11012E-02
 -0.21608E-01
  0.23970E-01
  0.24514E-01
  0.14565E-01
  0.32626E-01
 -0.16476E-01
 -0.18439E-01
 -0.15978E-01
  0.20204E-01
  0.20136E-01
  0.21510E-01
  0.18542E-01
  0.20145E-01
  0.21406E-01
  0.23140E-01
  0.23949E-01
  0.30213E-01
  0.30768E-01
  0.30963E-01
  0.31237E-01
  0.98995E-02
  0.28607E-01
  0.27785E-01
  0.29616E-01
  0.30238E-01
  0.26875E-01
  0.28885E-01
  0.28013E-01
 -0.98735E-02
  0.18511E-01
  0.18699E-01
  0.18080E-01
  0.18801E-01
  0.18949E-01
  0.17769E-01
  0.19305E-01
  0.18952E-01
  0.18573E-01
  0.16877E-01
  0.15959E-01
  0.54164E-02
  0.25786E-01
  0.26086E-01
  0.26859E-01
  0.27076E-01
  0.27664E-01
  0.27663E-01
  0.27896E-01
 -0.86761E-02
 -0.10970E-01
  0.22245E-02
  0.25401E-01
  0.27933E-01
  0.28444E-01
 -0.18377E-01
 -0.17993E-01
  0.14627E-02
 -0.24190E-02
  0.22129E-01
  0.26895E-01
  0.26985E-01
  0.21723E-01
  0.69290E-02
  0.13251E-01
  0.13543E-01
  0.11554E-01
  0.11163E-01
  0.93114E-02
  0.80804E-02
  0.65722E-02
  0.84060E-02
  0.10763E-01
  0.11757E-01
  0.30869E-01
  0.11957E-01
  0.10365E-01
  0.11477E-01
  0.93510E-02
  0.10644E-01
  0.12737E-01
  0.12029E-01
  0.93300E-02
 -0.12320E-01
  0.26525E-01
  0.28758E-01
  0.29902E-01
  0.56708E-02
  0.16152E-01
  0.15043E-01
  0.16416E-01
  0.15121E-01
  0.16664E-01
  0.15066E-01
  0.13132E-01
  0.17547E-01
  0.16870E-01
  0.17220E-01
  0.16768E-01
  0.18158E-01
  0.16553E-01
  0.17935E-01
  0.18573E-01
  0.19323E-01
 -0.11509E-02
  0.24486E-01
 -0.40386E-01
 -0.10639E-02
  0.11160E-01
 -0.12823E-01
  0.50909E-02
  0.13566E-01
  0.11926E-01
  0.10950E-01
  0.13649E-01
  0.11970E-01
  0.28647E-01
 -0.29460E-01
  0.12194E-03
  0.33813E-01
  0.16385E-02
  0.73304E-02
  0.18609E-01
  0.19221E-01
  0.13137E-01
  0.12631E-01
  0.65015E-02
  0.36271E-02
  0.10419E-01
  0.33074E-02
  0.17309E-01
  0.10337E-01
 -0.12531E-01
 -0.72988E-02
 -0.28842E-02
 -0.22903E-02
 -0.33526E-01
  0.97294E-02
  0.84402E-02
  0.95588E-02
  0.17759E-01
  0.80583E-02
  0.77814E-02
  0.89781E-02
  0.84802E-02
  0.60877E-02
  0.71705E-02
  0.96200E-02
  0.82176E-02
  0.52743E-02
  0.20504E-01
  0.21017E-01
  0.89818E-02
  0.56275E-02
 -0.25061E-01
  0.76777E-02
  0.10815E-01
  0.34276E-01
  0.34059E-01
  0.33781E-01
  0.33419E-01
  0.32847E-01
  0.12189E-01
  0.32607E-02
  0.17387E-01
  0.10327E-01
  0.70062E-02
  0.41770E-02
  0.22262E-01
  0.15483E-01
  0.40459E-02
 -0.97873E-03
 -0.98213E-02
 -0.14757E-01
  0.41740E-04
  0.42737E-02
  0.54563E-02
  0.45592E-02
  0.68296E-02
  0.61431E-02
  0.85761E-02
  0.80600E-02
  0.52377E-02
  0.74732E-02
  0.10190E-01
  0.12398E-01
  0.12355E-01
  0.14081E-01
  0.14389E-01
  0.56208E-02
  0.46443E-02
  0.45720E-02
  0.28316E-02
  0.38620E-02
 -0.17480E-01
  0.33959E-02
  0.73345E-02
 -0.17042E-01
 -0.10906E-01
  0.12414E-01
 -0.27611E-02
  0.10135E-01
  0.80598E-02
 -0.59645E-02
  0.32941E-01
 -0.24938E-02
 -0.21389E-01
 -0.42881E-02
  0.42792E-02
  0.18245E-01
  0.35045E-01
  0.14909E-01
  0.70311E-02
 -0.12891E-01
  0.13040E-01
  0.72399E-02
 -0.22955E-01
  0.77736E-03
  0.32733E-02
  0.13016E-01
  0.55622E-02
  0.64714E-02
  0.10400E-01
 -0.13215E-01
 -0.42132E-01
 -0.45482E-01
  0.54351E-02
  0.34577E-02
  0.33190E-01
  0.19212E-01
  0.41669E-02
 -0.54351E-02
  0.25327E-01
  0.33782E-01
  0.22962E-01
 -0.37930E-01
  0.13732E-01
  0.16131E-01
  0.13353E-01
 -0.11919E-01
  0.53415E-02
  0.14219E-01
  0.38949E-02
 -0.36453E-01
  0.65229E-02
  0.13044E-01
  0.50166E-02
  0.40819E-01
  0.14141E-01
 -0.28900E-01
  0.22957E-01
 -0.16320E-03
  0.12613E-01
  0.16178E-01
  0.14148E-01
  0.46738E-02
  0.72405E-02
 -0.93336E-02
  0.40993E-02
  0.57133E-02
  0.31357E-01
  0.26310E-02
  0.22600E-02
  0.33493E-01
 -0.23854E-01
 -0.20773E-01
  0.13896E-02
  0.22363E-01
 -0.59251E-01
 -0.57358E-01
  0.54046E-02
  0.23433E-01
 -0.99373E-02
 -0.20942E-01
 -0.47273E-01
  0.51367E-02
  0.11934E-01
  0.29294E-01
  0.16045E-01
  0.73020E-02
 -0.90239E-02
  0.15350E-01
  0.15919E-01
  0.48700E-02
  0.10025E-01
  0.31979E-01
  0.35164E-02
  0.21279E-01
  0.31327E-01
  0.50279E-02
  0.68356E-02
  0.17103E-01
 -0.46056E-01
 -0.14615E-01
  0.54218E-02
 -0.18767E-01
  0.31994E-01
  0.40985E-02
  0.13031E-01
  0.10597E-01
  0.20824E-01
  0.57451E-02
  0.27949E-01
  0.22015E-01
  0.68778E-02
  0.21530E-01
  0.11140E-01
  0.14612E-01
 -0.20816E-02
  0.64872E-02
  0.26030E-01
  0.10562E-01
 -0.44150E-01
  0.10859E-01
  0.28450E-01
  0.70836E-02
 -0.31164E-01
  0.33848E-01
  0.10528E-01
  0.37297E-02
  0.46680E-02
  0.30599E-01
 -0.29090E-02
  0.21633E-01
  0.29344E-01
  0.27118E-02
  0.20274E-01
  0.25442E-01
  0.21107E-01
  0.35897E-01
  0.32104E-01
  0.26187E-01
 -0.11219E-01
  0.25044E-01
  0.31293E-02
 -0.71548E-03
 -0.20478E-01