# vtk DataFile Version 2.0
Unstructured Grid UFVM-ECOMOD
ASCII
DATASET UNSTRUCTURED_GRID
 POINTS         1724  float
  0.00000E+00  0.00000E+00  0.00000E+00
  0.40000E+01  0.00000E+00  0.00000E+00
  0.40000E+01  0.20000E+01  0.00000E+00
  0.00000E+00  0.20000E+01  0.00000E+00
  0.15750E+01  0.10287E+01  0.00000E+00
  0.15677E+01  0.97091E+00  0.00000E+00
  0.15461E+01  0.91674E+00  0.00000E+00
  0.15118E+01  0.86961E+00  0.00000E+00
  0.14667E+01  0.83248E+00  0.00000E+00
  0.14138E+01  0.80767E+00  0.00000E+00
  0.13563E+01  0.79675E+00  0.00000E+00
  0.12979E+01  0.80041E+00  0.00000E+00
  0.12423E+01  0.81842E+00  0.00000E+00
  0.11929E+01  0.84963E+00  0.00000E+00
  0.11529E+01  0.89210E+00  0.00000E+00
  0.11247E+01  0.94315E+00  0.00000E+00
  0.11102E+01  0.99958E+00  0.00000E+00
  0.11102E+01  0.10578E+01  0.00000E+00
  0.11247E+01  0.11143E+01  0.00000E+00
  0.11529E+01  0.11653E+01  0.00000E+00
  0.11929E+01  0.12078E+01  0.00000E+00
  0.12423E+01  0.12390E+01  0.00000E+00
  0.12979E+01  0.12570E+01  0.00000E+00
  0.13563E+01  0.12607E+01  0.00000E+00
  0.14138E+01  0.12497E+01  0.00000E+00
  0.14667E+01  0.12249E+01  0.00000E+00
  0.15118E+01  0.11878E+01  0.00000E+00
  0.15461E+01  0.11407E+01  0.00000E+00
  0.15677E+01  0.10865E+01  0.00000E+00
  0.10000E+00  0.00000E+00  0.00000E+00
  0.20000E+00  0.00000E+00  0.00000E+00
  0.30000E+00  0.00000E+00  0.00000E+00
  0.40000E+00  0.00000E+00  0.00000E+00
  0.50000E+00  0.00000E+00  0.00000E+00
  0.60000E+00  0.00000E+00  0.00000E+00
  0.70000E+00  0.00000E+00  0.00000E+00
  0.80000E+00  0.00000E+00  0.00000E+00
  0.90000E+00  0.00000E+00  0.00000E+00
  0.10000E+01  0.00000E+00  0.00000E+00
  0.11000E+01  0.00000E+00  0.00000E+00
  0.12000E+01  0.00000E+00  0.00000E+00
  0.13000E+01  0.00000E+00  0.00000E+00
  0.14000E+01  0.00000E+00  0.00000E+00
  0.15000E+01  0.00000E+00  0.00000E+00
  0.16000E+01  0.00000E+00  0.00000E+00
  0.17000E+01  0.00000E+00  0.00000E+00
  0.18000E+01  0.00000E+00  0.00000E+00
  0.19000E+01  0.00000E+00  0.00000E+00
  0.20000E+01  0.00000E+00  0.00000E+00
  0.21000E+01  0.00000E+00  0.00000E+00
  0.22000E+01  0.00000E+00  0.00000E+00
  0.23000E+01  0.00000E+00  0.00000E+00
  0.24000E+01  0.00000E+00  0.00000E+00
  0.25000E+01  0.00000E+00  0.00000E+00
  0.26000E+01  0.00000E+00  0.00000E+00
  0.27000E+01  0.00000E+00  0.00000E+00
  0.28000E+01  0.00000E+00  0.00000E+00
  0.29000E+01  0.00000E+00  0.00000E+00
  0.30000E+01  0.00000E+00  0.00000E+00
  0.31000E+01  0.00000E+00  0.00000E+00
  0.32000E+01  0.00000E+00  0.00000E+00
  0.33000E+01  0.00000E+00  0.00000E+00
  0.34000E+01  0.00000E+00  0.00000E+00
  0.35000E+01  0.00000E+00  0.00000E+00
  0.36000E+01  0.00000E+00  0.00000E+00
  0.37000E+01  0.00000E+00  0.00000E+00
  0.38000E+01  0.00000E+00  0.00000E+00
  0.39000E+01  0.00000E+00  0.00000E+00
  0.40000E+01  0.10000E+00  0.00000E+00
  0.40000E+01  0.20000E+00  0.00000E+00
  0.40000E+01  0.30000E+00  0.00000E+00
  0.40000E+01  0.40000E+00  0.00000E+00
  0.40000E+01  0.50000E+00  0.00000E+00
  0.40000E+01  0.60000E+00  0.00000E+00
  0.40000E+01  0.70000E+00  0.00000E+00
  0.40000E+01  0.80000E+00  0.00000E+00
  0.40000E+01  0.90000E+00  0.00000E+00
  0.40000E+01  0.10000E+01  0.00000E+00
  0.40000E+01  0.11000E+01  0.00000E+00
  0.40000E+01  0.12000E+01  0.00000E+00
  0.40000E+01  0.13000E+01  0.00000E+00
  0.40000E+01  0.14000E+01  0.00000E+00
  0.40000E+01  0.15000E+01  0.00000E+00
  0.40000E+01  0.16000E+01  0.00000E+00
  0.40000E+01  0.17000E+01  0.00000E+00
  0.40000E+01  0.18000E+01  0.00000E+00
  0.40000E+01  0.19000E+01  0.00000E+00
  0.39000E+01  0.20000E+01  0.00000E+00
  0.38000E+01  0.20000E+01  0.00000E+00
  0.37000E+01  0.20000E+01  0.00000E+00
  0.36000E+01  0.20000E+01  0.00000E+00
  0.35000E+01  0.20000E+01  0.00000E+00
  0.34000E+01  0.20000E+01  0.00000E+00
  0.33000E+01  0.20000E+01  0.00000E+00
  0.32000E+01  0.20000E+01  0.00000E+00
  0.31000E+01  0.20000E+01  0.00000E+00
  0.30000E+01  0.20000E+01  0.00000E+00
  0.29000E+01  0.20000E+01  0.00000E+00
  0.28000E+01  0.20000E+01  0.00000E+00
  0.27000E+01  0.20000E+01  0.00000E+00
  0.26000E+01  0.20000E+01  0.00000E+00
  0.25000E+01  0.20000E+01  0.00000E+00
  0.24000E+01  0.20000E+01  0.00000E+00
  0.23000E+01  0.20000E+01  0.00000E+00
  0.22000E+01  0.20000E+01  0.00000E+00
  0.21000E+01  0.20000E+01  0.00000E+00
  0.20000E+01  0.20000E+01  0.00000E+00
  0.19000E+01  0.20000E+01  0.00000E+00
  0.18000E+01  0.20000E+01  0.00000E+00
  0.17000E+01  0.20000E+01  0.00000E+00
  0.16000E+01  0.20000E+01  0.00000E+00
  0.15000E+01  0.20000E+01  0.00000E+00
  0.14000E+01  0.20000E+01  0.00000E+00
  0.13000E+01  0.20000E+01  0.00000E+00
  0.12000E+01  0.20000E+01  0.00000E+00
  0.11000E+01  0.20000E+01  0.00000E+00
  0.10000E+01  0.20000E+01  0.00000E+00
  0.90000E+00  0.20000E+01  0.00000E+00
  0.80000E+00  0.20000E+01  0.00000E+00
  0.70000E+00  0.20000E+01  0.00000E+00
  0.60000E+00  0.20000E+01  0.00000E+00
  0.50000E+00  0.20000E+01  0.00000E+00
  0.40000E+00  0.20000E+01  0.00000E+00
  0.30000E+00  0.20000E+01  0.00000E+00
  0.20000E+00  0.20000E+01  0.00000E+00
  0.10000E+00  0.20000E+01  0.00000E+00
  0.00000E+00  0.19000E+01  0.00000E+00
  0.00000E+00  0.18000E+01  0.00000E+00
  0.00000E+00  0.17000E+01  0.00000E+00
  0.00000E+00  0.16000E+01  0.00000E+00
  0.00000E+00  0.15000E+01  0.00000E+00
  0.00000E+00  0.14000E+01  0.00000E+00
  0.00000E+00  0.13000E+01  0.00000E+00
  0.00000E+00  0.12000E+01  0.00000E+00
  0.00000E+00  0.11000E+01  0.00000E+00
  0.00000E+00  0.10000E+01  0.00000E+00
  0.00000E+00  0.90000E+00  0.00000E+00
  0.00000E+00  0.80000E+00  0.00000E+00
  0.00000E+00  0.70000E+00  0.00000E+00
  0.00000E+00  0.60000E+00  0.00000E+00
  0.00000E+00  0.50000E+00  0.00000E+00
  0.00000E+00  0.40000E+00  0.00000E+00
  0.00000E+00  0.30000E+00  0.00000E+00
  0.00000E+00  0.20000E+00  0.00000E+00
  0.00000E+00  0.10000E+00  0.00000E+00
  0.15713E+01  0.99981E+00  0.00000E+00
  0.15569E+01  0.94382E+00  0.00000E+00
  0.15290E+01  0.89318E+00  0.00000E+00
  0.14892E+01  0.85104E+00  0.00000E+00
  0.14402E+01  0.82007E+00  0.00000E+00
  0.13850E+01  0.80221E+00  0.00000E+00
  0.13271E+01  0.79858E+00  0.00000E+00
  0.12701E+01  0.80941E+00  0.00000E+00
  0.12176E+01  0.83402E+00  0.00000E+00
  0.11729E+01  0.87086E+00  0.00000E+00
  0.11388E+01  0.91762E+00  0.00000E+00
  0.11175E+01  0.97136E+00  0.00000E+00
  0.11102E+01  0.10287E+01  0.00000E+00
  0.11175E+01  0.10860E+01  0.00000E+00
  0.11388E+01  0.11398E+01  0.00000E+00
  0.11729E+01  0.11865E+01  0.00000E+00
  0.12176E+01  0.12234E+01  0.00000E+00
  0.12701E+01  0.12480E+01  0.00000E+00
  0.13271E+01  0.12588E+01  0.00000E+00
  0.13850E+01  0.12552E+01  0.00000E+00
  0.14402E+01  0.12373E+01  0.00000E+00
  0.14892E+01  0.12064E+01  0.00000E+00
  0.15290E+01  0.11642E+01  0.00000E+00
  0.15569E+01  0.11136E+01  0.00000E+00
  0.15713E+01  0.10576E+01  0.00000E+00
  0.15994E+01  0.10133E+01  0.00000E+00
  0.15863E+01  0.11089E+01  0.00000E+00
  0.25478E+01  0.10053E+00  0.00000E+00
  0.25434E+01  0.19142E+01  0.00000E+00
  0.11238E+01  0.89266E+00  0.00000E+00
  0.11061E+01  0.11423E+01  0.00000E+00
  0.15575E+01  0.89126E+00  0.00000E+00
  0.10894E+01  0.97917E+00  0.00000E+00
  0.15393E+01  0.11910E+01  0.00000E+00
  0.11627E+01  0.12175E+01  0.00000E+00
  0.14962E+01  0.82262E+00  0.00000E+00
  0.29512E+01  0.95010E-01  0.00000E+00
  0.29494E+01  0.19117E+01  0.00000E+00
  0.39186E+01  0.10466E+01  0.00000E+00
  0.11913E+01  0.82197E+00  0.00000E+00
  0.12788E+01  0.78594E+00  0.00000E+00
  0.21500E+01  0.86600E-01  0.00000E+00
  0.21472E+01  0.19005E+01  0.00000E+00
  0.14041E+01  0.78007E+00  0.00000E+00
  0.14641E+01  0.12550E+01  0.00000E+00
  0.13764E+01  0.12826E+01  0.00000E+00
  0.99450E-01  0.63780E+00  0.00000E+00
  0.92450E-01  0.13422E+01  0.00000E+00
  0.12473E+01  0.12677E+01  0.00000E+00
  0.65677E+00  0.19154E+01  0.00000E+00
  0.86110E-01  0.10467E+01  0.00000E+00
  0.75000E+00  0.86600E-01  0.00000E+00
  0.33379E+01  0.88030E-01  0.00000E+00
  0.33490E+01  0.19201E+01  0.00000E+00
  0.18500E+01  0.86600E-01  0.00000E+00
  0.18441E+01  0.19006E+01  0.00000E+00
  0.38922E+01  0.64055E+00  0.00000E+00
  0.39154E+01  0.13500E+01  0.00000E+00
  0.10564E+01  0.85180E-01  0.00000E+00
  0.94817E+00  0.19249E+01  0.00000E+00
  0.15421E+01  0.85450E-01  0.00000E+00
  0.15479E+01  0.19161E+01  0.00000E+00
  0.12386E+01  0.19130E+01  0.00000E+00
  0.45294E+00  0.85030E-01  0.00000E+00
  0.86890E-01  0.16531E+01  0.00000E+00
  0.36495E+01  0.78620E-01  0.00000E+00
  0.36510E+01  0.19107E+01  0.00000E+00
  0.10846E+01  0.10423E+01  0.00000E+00
  0.15860E+01  0.94842E+00  0.00000E+00
  0.13392E+01  0.77093E+00  0.00000E+00
  0.13108E+01  0.12864E+01  0.00000E+00
  0.87300E-01  0.35008E+00  0.00000E+00
  0.34468E+00  0.19176E+01  0.00000E+00
  0.39135E+01  0.16499E+01  0.00000E+00
  0.39252E+01  0.34254E+00  0.00000E+00
  0.13680E+01  0.88360E-01  0.00000E+00
  0.88350E-01  0.84594E+00  0.00000E+00
  0.23513E+01  0.77830E-01  0.00000E+00
  0.23488E+01  0.19154E+01  0.00000E+00
  0.27481E+01  0.80910E-01  0.00000E+00
  0.31480E+01  0.84140E-01  0.00000E+00
  0.31513E+01  0.19149E+01  0.00000E+00
  0.27502E+01  0.19198E+01  0.00000E+00
  0.39134E+01  0.85000E+00  0.00000E+00
  0.25071E+00  0.86200E-01  0.00000E+00
  0.91130E-01  0.18412E+01  0.00000E+00
  0.38461E+01  0.84360E-01  0.00000E+00
  0.38408E+01  0.19092E+01  0.00000E+00
  0.97440E-01  0.15849E+00  0.00000E+00
  0.15988E+01  0.10458E+01  0.00000E+00
  0.16261E+01  0.10305E+01  0.00000E+00
  0.16281E+01  0.99836E+00  0.00000E+00
  0.16554E+01  0.10148E+01  0.00000E+00
  0.16578E+01  0.98164E+00  0.00000E+00
  0.16863E+01  0.99914E+00  0.00000E+00
  0.16884E+01  0.96239E+00  0.00000E+00
  0.17222E+01  0.98417E+00  0.00000E+00
  0.17231E+01  0.93952E+00  0.00000E+00
  0.17605E+01  0.96435E+00  0.00000E+00
  0.17576E+01  0.10098E+01  0.00000E+00
  0.17991E+01  0.98970E+00  0.00000E+00
  0.17625E+01  0.91931E+00  0.00000E+00
[...]
 POINT_DATA         1724
  
 SCALARS WL      float 1
 LOOKUP_TABLE default
  0.20922E-01
  0.53235E-02
 -0.28275E-05
  0.33062E-01
 -0.45021E-01
 -0.32708E-01
 -0.18877E-01
 -0.15544E-01
 -0.15227E-01
 -0.12424E-01
 -0.12387E-01
 -0.13822E-01
 -0.28074E-02
  0.93513E-02
  0.25715E-01
  0.37030E-01
  0.43652E-01
  0.43581E-01
  0.36557E-01
  0.23831E-01
  0.39661E-02
 -0.19468E-01
 -0.44594E-01
 -0.65011E-01
 -0.45982E-01
 -0.34833E-01
 -0.34524E-01
 -0.38839E-01
 -0.43430E-01
  0.20755E-01
  0.20439E-01
  0.19990E-01
  0.19465E-01
  0.18876E-01
  0.18259E-01
  0.17715E-01
  0.17364E-01
  0.17220E-01
  0.17514E-01
  0.18137E-01
  0.18870E-01
  0.19607E-01
  0.19987E-01
  0.19706E-01
  0.19392E-01
  0.19287E-01
  0.19535E-01
  0.20124E-01
  0.20325E-01
  0.20400E-01
  0.20154E-01
  0.20061E-01
  0.20290E-01
  0.21532E-01
  0.23676E-01
  0.26464E-01
  0.29158E-01
  0.31363E-01
  0.33025E-01
  0.33624E-01
  0.33423E-01
  0.32677E-01
  0.31188E-01
  0.29157E-01
  0.26051E-01
  0.22092E-01
  0.16781E-01
  0.98438E-02
  0.00000E+00
  0.00000E+00
  0.00000E+00
  0.00000E+00
  0.00000E+00
  0.00000E+00
  0.00000E+00
  0.00000E+00
  0.00000E+00
  0.00000E+00
  0.00000E+00
  0.00000E+00
  0.00000E+00
  0.00000E+00
  0.00000E+00
  0.00000E+00
  0.00000E+00
  0.00000E+00
  0.00000E+00
 -0.39989E-03
 -0.16321E-02
 -0.22721E-02
 -0.22312E-02
 -0.14191E-02
  0.77720E-04
  0.14452E-02
  0.25647E-02
  0.34093E-02
  0.33403E-02
  0.26335E-02
  0.18833E-02
  0.13707E-02
  0.93608E-03
  0.78027E-03
  0.89979E-03
  0.11503E-02
  0.14070E-02
  0.15339E-02
  0.12255E-02
  0.72886E-03
  0.27872E-03
  0.12342E-03
  0.76013E-03
  0.24309E-02
  0.49500E-02
  0.80202E-02
  0.11276E-01
  0.14392E-01
  0.17251E-01
  0.19823E-01
  0.22004E-01
  0.23919E-01
  0.25608E-01
  0.27204E-01
  0.28752E-01
  0.30126E-01
  0.31391E-01
  0.32461E-01
  0.33117E-01
  0.33106E-01
  0.33021E-01
  0.32849E-01
  0.32502E-01
  0.31976E-01
  0.31299E-01
  0.30358E-01
  0.29303E-01
  0.28128E-01
  0.26921E-01
  0.25776E-01
  0.24634E-01
  0.23681E-01
  0.22860E-01
  0.22181E-01
  0.21650E-01
  0.21266E-01
  0.21021E-01
 -0.41082E-01
 -0.24494E-01
 -0.15333E-01
 -0.15819E-01
 -0.13868E-01
 -0.12220E-01
 -0.14179E-01
 -0.11094E-01
  0.19937E-02
  0.18180E-01
  0.32101E-01
  0.41585E-01
  0.44383E-01
  0.41386E-01
  0.31236E-01
  0.14263E-01
 -0.67027E-02
 -0.31410E-01
 -0.57805E-01
 -0.60530E-01
 -0.36895E-01
 -0.34495E-01
 -0.36226E-01
 -0.41333E-01
 -0.45584E-01
 -0.40874E-01
 -0.41052E-01
  0.22314E-01
  0.10136E-02
  0.30346E-01
  0.33949E-01
 -0.16577E-01
  0.42498E-01
 -0.34513E-01
  0.12544E-01
 -0.16197E-01
  0.31546E-01
  0.28581E-02
  0.57954E-03
  0.78239E-02
 -0.10711E-01
  0.20251E-01
  0.15988E-02
 -0.11501E-01
 -0.34776E-01
 -0.59781E-01
  0.24141E-01
  0.31633E-01
 -0.20644E-01
  0.24788E-01
  0.28912E-01
  0.17669E-01
  0.31766E-01
  0.73656E-03
  0.19822E-01
  0.24355E-03
 -0.42569E-02
  0.39619E-02
  0.17932E-01
  0.18631E-01
  0.19095E-01
  0.11417E-02
  0.98319E-02
  0.19266E-01
  0.32595E-01
  0.24023E-01
 -0.21029E-02
  0.43886E-01
 -0.26942E-01
 -0.11802E-01
 -0.45455E-01
  0.21828E-01
  0.29547E-01
  0.11623E-02
  0.56310E-02
  0.19426E-01
  0.26529E-01
  0.20008E-01
  0.12157E-02
  0.27473E-01
  0.33103E-01
  0.31372E-02
  0.17129E-02
 -0.57557E-02
  0.20310E-01
  0.32598E-01
  0.13390E-01
 -0.88717E-03
  0.20993E-01
 -0.43566E-01
 -0.39598E-01
 -0.37212E-01
 -0.37928E-01
 -0.35055E-01
 -0.36891E-01
 -0.33643E-01
 -0.35967E-01
 -0.31560E-01
 -0.33968E-01
 -0.37664E-01
 -0.34970E-01
 -0.28248E-01
 -0.37827E-01
 -0.33380E-01
 -0.33947E-01
 -0.28147E-01
 -0.25938E-01
 -0.20815E-01
 -0.22598E-01
 -0.16470E-01
 -0.18111E-01
 -0.14010E-01
 -0.15435E-01
 -0.13526E-01
 -0.15044E-01
 -0.15172E-01
 -0.14065E-01
 -0.17284E-01
 -0.18975E-01
 -0.13756E-01
 -0.18217E-01
 -0.13442E-01
 -0.10806E-01
 -0.14526E-01
 -0.21495E-01
 -0.15782E-01
 -0.20293E-01
 -0.13083E-01
 -0.90314E-02
 -0.69156E-02
 -0.77241E-02
 -0.37107E-02
 -0.35449E-02
 -0.27887E-02
 -0.61003E-03
 -0.20519E-02
 -0.40873E-02
 -0.54203E-02
 -0.13278E-02
 -0.65318E-02
 -0.49715E-03
 -0.67289E-02
 -0.13547E-01
 -0.13933E-01
 -0.57300E-02
 -0.21075E-01
 -0.19932E-01
 -0.25850E-01
 -0.31140E-01
 -0.22701E-01
 -0.25873E-01
 -0.26812E-01
 -0.15946E-01
 -0.77702E-02
 -0.10662E-01
  0.54975E-03
 -0.33237E-02
  0.79815E-02
 -0.20871E-01
 -0.16839E-01
 -0.21309E-01
  0.40950E-02
  0.10733E-01
  0.16604E-01
  0.18635E-01
  0.21431E-01
  0.22691E-01
 -0.15653E-01
 -0.14287E-01
  0.22458E-01
  0.21498E-01
 -0.24886E-01
  0.20358E-01
  0.17611E-01
  0.17614E-01
  0.14427E-01
  0.13636E-01
  0.10479E-01
  0.85205E-02
  0.61170E-02
  0.88152E-02
  0.54988E-02
 -0.71286E-02
  0.21929E-02
 -0.46847E-02
  0.58303E-02
  0.33746E-02
  0.21823E-01
 -0.20465E-01
  0.85730E-02
  0.62621E-02
 -0.16815E-01
  0.19420E-02
 -0.92562E-02
 -0.74169E-02
 -0.10707E-01
 -0.50496E-02
  0.95088E-02
  0.79483E-02
  0.47039E-02
  0.72699E-02
  0.11599E-01
  0.11140E-01
  0.10545E-01
  0.42650E-02
  0.74680E-02
  0.99386E-02
  0.10628E-01
  0.12531E-01
  0.13418E-01
  0.11847E-01
  0.14759E-01
  0.13680E-01
  0.16537E-01
  0.16038E-01
  0.18690E-01
  0.18635E-01
  0.20475E-01
  0.20963E-01
  0.22352E-01
  0.23301E-01
  0.24123E-01
  0.25425E-01
  0.25677E-01
  0.27179E-01
  0.26905E-01
  0.28517E-01
  0.27866E-01
  0.29434E-01
  0.28536E-01
  0.29925E-01
  0.27125E-01
  0.28935E-01
  0.30130E-01
  0.29123E-01
  0.30159E-01
  0.31183E-01
  0.30979E-01
  0.31973E-01
  0.31534E-01
  0.32454E-01
  0.31787E-01
  0.32537E-01
  0.31719E-01
  0.32230E-01
  0.31342E-01
  0.31565E-01
  0.30683E-01
  0.30528E-01
  0.29782E-01
  0.29216E-01
  0.30661E-01
  0.31049E-01
  0.28709E-01
  0.27760E-01
  0.24393E-01
  0.29284E-01
  0.28172E-01
  0.27556E-01
  0.28484E-01
  0.26338E-01
  0.26333E-01
  0.24711E-01
  0.24342E-01
  0.22667E-01
  0.21716E-01
  0.20133E-01
  0.18411E-01
  0.28381E-01
  0.27210E-01
  0.20061E-01
  0.33245E-01
  0.27505E-01
  0.28477E-01
  0.26465E-01
  0.30281E-01
  0.32716E-01
  0.17173E-01
  0.14537E-01
  0.23402E-01
  0.27647E-01
  0.28628E-01
  0.27467E-01
  0.26313E-01
  0.15139E-01
  0.13838E-01
  0.10495E-01
  0.20039E-01
  0.26914E-01
  0.28556E-01
  0.29265E-01
  0.29459E-01
  0.29894E-01
 -0.39186E-01
  0.25944E-01
  0.25090E-01
  0.24587E-01
  0.23814E-01
  0.23209E-01
  0.11377E-01
  0.27984E-01
  0.22562E-01
 -0.64855E-02
 -0.10746E-01
 -0.14367E-01
  0.21604E-01
  0.10595E-01
  0.57856E-02
  0.64980E-02
  0.11305E-02
  0.27153E-02
 -0.27952E-02
 -0.45059E-03
 -0.56124E-02
 -0.90541E-02
 -0.12370E-01
 -0.72647E-02
 -0.12082E-01
 -0.17866E-01
 -0.15868E-01
 -0.10917E-01
 -0.13129E-01
 -0.92061E-02
 -0.98867E-02
 -0.13419E-01
 -0.95177E-02
 -0.12841E-01
 -0.91140E-02
 -0.62080E-02
 -0.56428E-02
 -0.33605E-02
 -0.25114E-02
 -0.10573E-02
 -0.82732E-04
  0.74871E-03
  0.18327E-02
  0.87162E-03
  0.27040E-02
  0.30819E-02
  0.41873E-02
  0.40741E-02
  0.52244E-02
  0.36385E-02
 -0.49845E-02
  0.95966E-02
  0.15938E-01
  0.16182E-01
  0.47162E-02
  0.59913E-02
  0.26690E-01
 -0.25555E-02
  0.21918E-01
  0.22553E-01
 -0.16553E-02
  0.62759E-02
  0.70156E-02
  0.59982E-02
  0.62557E-02
  0.55414E-02
  0.54866E-02
 -0.17272E-01
 -0.17069E-01
  0.43185E-02
  0.38499E-02
 -0.98878E-02
 -0.45846E-02
 -0.52912E-02
  0.26828E-01
  0.39580E-02
  0.10861E-01
 -0.18031E-01
 -0.66247E-02
  0.57154E-02
  0.92804E-02
  0.11114E-01
  0.13801E-01
  0.15410E-01
  0.17480E-01
  0.18816E-01
  0.16479E-01
  0.19874E-01
  0.17241E-01
  0.20457E-01
  0.20787E-01
  0.17861E-01
  0.13907E-01
  0.14279E-01
  0.99601E-02
  0.10165E-01
  0.14608E-01
  0.10220E-01
  0.60461E-02
  0.15078E-01
  0.10273E-01
  0.43239E-02
  0.20221E-02
  0.20434E-02
 -0.78782E-02
  0.67653E-02
 -0.56822E-03
  0.27052E-03
  0.23163E-01
  0.22062E-01
 -0.10160E-01
 -0.67990E-02
  0.69825E-02
  0.11534E-01
  0.16346E-01
  0.19163E-01
  0.15540E-01
 -0.21739E-01
 -0.26278E-01
  0.19853E-01
  0.17922E-01
  0.21808E-01
 -0.97043E-03
  0.27349E-01
  0.28488E-01
 -0.15677E-02
  0.26829E-03
 -0.13664E-03
  0.16073E-01
 -0.72592E-03
 -0.18298E-02
 -0.21344E-01
 -0.23250E-01
 -0.53328E-02
  0.30160E-01
  0.30391E-01
 -0.38125E-02
 -0.30639E-02
  0.10203E-01
  0.54532E-02
 -0.35002E-02
 -0.13086E-02
 -0.16709E-01
 -0.35251E-01
 -0.70844E-02
  0.14262E-01
  0.16181E-01
 -0.60323E-02
 -0.21530E-02
  0.21250E-01
  0.21798E-01
 -0.43077E-04
  0.19795E-01
  0.29620E-02
  0.22970E-01
 -0.14389E-01
 -0.75091E-02
 -0.14873E-01
 -0.96135E-02
 -0.18653E-01
 -0.16844E-02
  0.15753E-01
  0.47431E-02
 -0.17191E-01
  0.10574E-01
 -0.94863E-03
  0.22646E-01
  0.20197E-01
 -0.27909E-01
  0.20148E-02
  0.21729E-01
 -0.85482E-02
  0.30204E-01
  0.30471E-01
  0.30348E-01
  0.30359E-01
  0.30566E-01
  0.30273E-01
  0.30036E-01
  0.18487E-01
  0.26068E-01
 -0.16433E-01
 -0.11509E-01
  0.11330E-01
  0.15166E-02
  0.25178E-02
 -0.15983E-03
  0.58285E-03
 -0.20222E-01
  0.27997E-01
  0.29122E-01
  0.20763E-01
  0.20328E-01
  0.21051E-01
  0.23731E-01
 -0.26841E-01
 -0.25250E-01
 -0.16239E-02
 -0.44800E-02
 -0.35986E-02
 -0.16413E-01
 -0.11435E-01
 -0.14202E-01
 -0.97457E-02
 -0.11218E-01
  0.98660E-02
 -0.70143E-02
 -0.80118E-02
  0.22505E-01
  0.21635E-01
  0.20286E-01
  0.20723E-01
  0.19521E-01
  0.19837E-01
  0.15328E-01
 -0.29486E-01
 -0.12026E-01
  0.30720E-01
  0.30583E-01
  0.18556E-01
 -0.21257E-01
  0.11570E-02
 -0.55039E-02
  0.71547E-03
  0.49509E-03
  0.15905E-01
  0.17336E-01
  0.17590E-01
  0.19984E-02
  0.16311E-01
  0.20340E-01
 -0.31216E-01
 -0.18931E-01
  0.12514E-01
  0.29961E-01
  0.29486E-01
  0.29637E-01
  0.28874E-01
 -0.98662E-02
  0.20651E-01
 -0.29168E-01
 -0.29101E-01
 -0.26498E-01
 -0.31713E-01
  0.23178E-01
  0.24312E-01
  0.34013E-02
 -0.28566E-02
 -0.47915E-02
  0.93315E-02
  0.49526E-02
 -0.65627E-02
  0.19836E-01
  0.20729E-01
  0.20534E-01
  0.20843E-01
 -0.31570E-01
  0.30056E-01
  0.25465E-01
  0.24614E-01
  0.47783E-02
  0.18188E-01
  0.25474E-01
  0.38092E-02
  0.27456E-02
  0.18339E-01
 -0.13108E-01
 -0.19399E-01
  0.16388E-01
  0.17562E-01
  0.18920E-01
  0.18456E-01
 -0.29913E-01
 -0.34220E-01
 -0.39789E-01
 -0.79931E-02
 -0.25786E-02
 -0.37540E-02
  0.11880E-01
  0.51778E-02
  0.65433E-02
 -0.21875E-02
  0.11669E-02
 -0.21862E-02
  0.31177E-01
  0.31112E-01
  0.19107E-01
 -0.40240E-02
 -0.42160E-02
 -0.25609E-02
 -0.12482E-02
  0.28743E-01
  0.29878E-01
  0.27543E-01
 -0.26939E-02
 -0.14767E-02
 -0.28072E-03
  0.30403E-01
 -0.74672E-02
 -0.38091E-02
 -0.69890E-02
  0.31126E-01
  0.23851E-01
  0.22985E-01
  0.21943E-01
  0.31604E-02
  0.46317E-02
 -0.14665E-01
  0.71693E-02
  0.35519E-03
 -0.29772E-02
 -0.81353E-03
 -0.43315E-02
 -0.36326E-01
 -0.35811E-01
 -0.38036E-01
  0.28693E-01
  0.27898E-01
  0.28187E-01
  0.27060E-01
  0.80414E-03
  0.21110E-01
  0.20995E-01
  0.51890E-02
  0.21091E-01
  0.19882E-01
  0.22338E-01
 -0.13762E-01
 -0.15072E-01
  0.20642E-01
  0.20510E-01
  0.20360E-01
  0.19756E-01
  0.22083E-01
  0.13327E-01
  0.15732E-01
  0.12981E-01
  0.15380E-01
 -0.25226E-01
  0.25394E-01
  0.12798E-01
  0.10157E-01
 -0.36136E-01
 -0.34424E-01
 -0.73605E-02
 -0.43129E-02
  0.31704E-01
 -0.23449E-02
  0.19648E-01
 -0.27389E-01
 -0.32089E-01
 -0.38437E-01
 -0.36142E-01
 -0.27336E-01
 -0.27658E-01
 -0.21097E-02
 -0.97228E-03
  0.18745E-01
  0.21493E-01
  0.22983E-01
  0.23615E-01
  0.25374E-01
  0.25541E-01
  0.23511E-01
  0.18876E-01
  0.18522E-01
  0.19396E-01
  0.18669E-01
  0.26768E-01
  0.25809E-01
  0.15660E-01
  0.17251E-01
  0.15661E-01
 -0.13810E-01
  0.15371E-01
  0.91382E-02
  0.33835E-02
  0.20359E-01
  0.21048E-02
  0.18818E-02
  0.21886E-02
  0.18516E-01
 -0.23153E-01
  0.13118E-02
  0.17463E-02
 -0.38483E-01
 -0.37088E-01
 -0.25369E-01
 -0.17964E-01
 -0.14164E-01
 -0.22500E-01
 -0.87479E-02
 -0.12777E-01
 -0.22893E-02
 -0.42664E-02
  0.45894E-02
  0.42639E-02
  0.11633E-01
  0.10503E-01
  0.16124E-01
  0.18227E-01
  0.20979E-01
  0.23602E-01
  0.24884E-01
  0.27723E-01
  0.27007E-01
  0.31032E-01
  0.30421E-01
  0.33275E-01
  0.32045E-01
  0.34239E-01
  0.35867E-01
  0.36185E-01
  0.38129E-01
  0.37569E-01
  0.39584E-01
  0.38315E-01
  0.36586E-01
  0.36847E-01
  0.38453E-01
  0.36464E-01
  0.37265E-01
  0.35556E-01
  0.35794E-01
  0.37465E-01
  0.35385E-01
  0.33932E-01
  0.32899E-01
  0.37017E-01
  0.35444E-01
  0.31887E-01
  0.30300E-01
  0.30874E-01
  0.27760E-01
  0.26768E-01
  0.24275E-01
  0.37790E-01
  0.29808E-01
  0.32753E-01
  0.21639E-01
  0.19731E-01
  0.22338E-01
  0.18448E-01
  0.14629E-01
  0.14344E-01
  0.95506E-02
  0.10460E-01
  0.51967E-02
  0.71608E-02
  0.22431E-02
  0.48404E-02
  0.14494E-01
  0.30926E-01
  0.32793E-01
  0.24408E-01
  0.34917E-01
  0.33919E-01
  0.39194E-01
  0.35082E-01
  0.25572E-01
  0.87599E-02
  0.21536E-01
  0.20916E-01
  0.27509E-02
  0.19572E-01
 -0.38303E-01
 -0.20573E-01
 -0.24176E-01
  0.59205E-02
 -0.31476E-01
  0.17508E-01
  0.16106E-01
  0.27685E-01
  0.27233E-01
  0.34916E-02
 -0.13984E-02
  0.10687E-02
 -0.46317E-02
  0.11451E-01
 -0.69504E-02
  0.41975E-02
  0.38377E-01
  0.15770E-02
  0.20839E-01
 -0.75170E-03
 -0.77509E-02
  0.17278E-01
 -0.45571E-02
 -0.83750E-02
  0.37572E-02
 -0.39848E-01
  0.13408E-03
  0.35154E-01
  0.39445E-01
 -0.12913E-01
 -0.34039E-01
 -0.77653E-02
  0.24971E-01
  0.17628E-01
  0.18406E-01
  0.31699E-01
  0.24808E-01
  0.22799E-01
  0.94852E-02
 -0.43543E-02
 -0.68358E-02
 -0.44849E-02
  0.20670E-01
  0.25075E-01
 -0.34181E-01
  0.18324E-01
  0.29475E-01
 -0.17997E-01
 -0.12933E-01
 -0.11618E-01
  0.40257E-02
  0.19188E-04
 -0.39841E-02
  0.29763E-01
  0.23662E-01
  0.22755E-01
  0.23817E-01
  0.24952E-01
  0.27125E-01
  0.28043E-01
  0.34232E-01
  0.85712E-03
 -0.74776E-04
  0.47145E-02
  0.22829E-01
  0.25414E-01
 -0.63481E-02
  0.18330E-01
  0.18639E-01
 -0.21358E-01
 -0.15522E-01
  0.19385E-01
  0.19265E-01
 -0.56659E-02
 -0.18341E-02
 -0.32460E-01
 -0.33514E-01
  0.19105E-01
  0.18127E-01
  0.17629E-01
  0.33566E-01
  0.32522E-01
  0.30930E-01
  0.16760E-01
  0.52940E-02
 -0.19076E-02
 -0.20468E-01
 -0.30819E-01
  0.69589E-02
  0.37372E-01
  0.28390E-01
  0.27032E-01
  0.19850E-01
 -0.36387E-01
  0.31638E-01
  0.17060E-01
  0.18088E-01
  0.89493E-02
  0.19170E-01
  0.16192E-01
  0.18011E-01
  0.16820E-01
  0.14019E-01
  0.15940E-01
  0.20360E-01
  0.16205E-01
  0.15861E-01
  0.17652E-01
  0.19544E-01
 -0.32921E-01
 -0.21126E-01
 -0.22493E-01
 -0.19377E-01
 -0.21862E-01
  0.13450E-01
 -0.17808E-01
  0.23783E-01
 -0.21965E-01
  0.82977E-02
  0.57905E-02
  0.95612E-02
  0.34671E-01
  0.30159E-02
  0.55221E-02
  0.21682E-01
 -0.26922E-03
  0.56049E-04
  0.29422E-02
 -0.14182E-01
 -0.42465E-01
  0.28231E-01
  0.29311E-01
  0.40398E-01
  0.41589E-01
  0.40174E-01
  0.41588E-01
  0.40055E-01
 -0.54734E-02
  0.23213E-01
  0.13119E-02
  0.43892E-01
  0.18642E-01
  0.17782E-01
  0.24688E-01
  0.26328E-01
  0.17898E-01
  0.76516E-02
  0.13990E-01
  0.30591E-02
 -0.31209E-02
  0.20417E-01
  0.13458E-01
 -0.14753E-01
 -0.18976E-01
 -0.19068E-01
 -0.18360E-01
  0.12965E-01
  0.21389E-01
  0.20896E-01
  0.21748E-01
  0.29583E-01
  0.42460E-01
  0.28794E-02
  0.23697E-02
  0.21301E-02
 -0.10891E-01
  0.24787E-02
  0.23801E-02
  0.15301E-01
 -0.10706E-01
 -0.31587E-01
  0.11590E-02
 -0.41824E-02
 -0.88208E-02
 -0.55422E-01
 -0.38672E-01
 -0.39808E-01
  0.30104E-01
  0.32245E-01
  0.31605E-01
 -0.24944E-02
 -0.35379E-01
 -0.29277E-01
 -0.70645E-02
  0.14914E-02
  0.24730E-01
  0.25349E-01
  0.18878E-01
  0.34242E-01
  0.28783E-03
 -0.87289E-02
 -0.13000E-01
  0.23288E-01
  0.24027E-01
  0.24829E-01
  0.23138E-01
  0.24706E-01
  0.23991E-01
  0.26530E-01
  0.26920E-01
  0.30218E-01
  0.29814E-01
  0.29865E-01
  0.29215E-01
  0.18572E-01
  0.30329E-01
  0.30007E-01
  0.30665E-01
  0.30472E-01
  0.29408E-01
  0.30587E-01
  0.30232E-01
 -0.19606E-02
  0.14222E-02
  0.17725E-02
  0.16456E-02
  0.25424E-02
  0.24622E-02
  0.24788E-02
  0.36356E-02
  0.28770E-02
  0.22589E-02
  0.16167E-02
  0.24071E-02
  0.10315E-02
  0.27712E-01
  0.28544E-01
  0.29688E-01
  0.29995E-01
  0.30585E-01
  0.30361E-01
  0.30962E-01
 -0.59035E-02
 -0.74455E-02
  0.21033E-01
  0.28938E-01
  0.30980E-01
  0.31236E-01
 -0.13590E-01
 -0.72105E-02
 -0.77818E-02
 -0.92195E-02
  0.24026E-01
  0.29428E-01
  0.29574E-01
  0.25630E-01
  0.20611E-01
  0.62245E-02
  0.69627E-02
  0.38533E-02
  0.39724E-02
  0.96529E-03
  0.26254E-03
 -0.24170E-02
 -0.12382E-02
  0.39072E-02
  0.33075E-02
  0.26495E-01
  0.14586E-04
 -0.66859E-03
 -0.98266E-03
 -0.23362E-02
 -0.19533E-02
 -0.70980E-03
 -0.11839E-02
 -0.28298E-02
 -0.67987E-02
  0.20980E-01
  0.23023E-01
  0.24205E-01
  0.14030E-01
  0.90743E-03
  0.47743E-03
  0.11050E-02
  0.67786E-03
  0.14909E-02
  0.92260E-03
 -0.19776E-03
  0.15721E-02
  0.20040E-02
  0.18141E-01
  0.18447E-01
  0.18837E-01
  0.19143E-01
  0.19353E-01
  0.18688E-01
  0.19306E-01
 -0.11807E-01
  0.22082E-01
 -0.45159E-01
 -0.13414E-02
  0.35399E-03
 -0.55313E-02
  0.24956E-01
  0.12029E-02
  0.16919E-02
  0.22318E-02
  0.24032E-02
  0.30487E-02
  0.31323E-01
 -0.37989E-01
  0.10348E-01
  0.34995E-01
  0.21025E-01
 -0.42669E-02
  0.18660E-02
  0.19769E-01
 -0.17080E-03
  0.13295E-01
 -0.44790E-02
  0.29817E-01
  0.22246E-02
  0.15283E-01
  0.13865E-02
  0.65201E-02
 -0.18392E-01
 -0.69176E-02
 -0.90969E-02
 -0.10884E-01
 -0.30173E-01
  0.57328E-02
 -0.16071E-02
  0.22003E-01
  0.51711E-02
  0.24898E-01
  0.28063E-01
  0.24116E-01
  0.27232E-01
  0.30701E-01
  0.29590E-01
  0.25870E-01
  0.27906E-01
  0.31218E-01
  0.19822E-01
  0.20329E-01
  0.19330E-01
  0.17107E-01
 -0.27904E-01
  0.34118E-02
  0.84466E-02
  0.30795E-01
  0.30236E-01
  0.31445E-01
  0.30862E-01
  0.32045E-01
  0.34037E-02
  0.32829E-01
  0.10247E-02
  0.91001E-03
  0.19890E-01
 -0.39402E-02
  0.21346E-01
  0.19074E-02
  0.32680E-01
 -0.15694E-01
 -0.28846E-02
 -0.21125E-02
  0.42435E-02
  0.30312E-02
  0.49179E-02
  0.20162E-02
  0.19099E-02
  0.65289E-03
  0.72560E-03
 -0.53145E-03
 -0.32739E-03
 -0.14964E-02
 -0.14182E-02
 -0.15876E-02
 -0.10239E-02
 -0.61780E-03
 -0.70570E-03
  0.29781E-01
  0.19364E-01
  0.15828E-01
  0.86591E-02
  0.11346E-01
 -0.70363E-03
  0.47081E-03
 -0.17973E-01
 -0.24782E-01
 -0.19642E-01
  0.83247E-04
  0.15214E-02
  0.44120E-02
  0.38417E-03
  0.50087E-02
  0.31409E-01
 -0.30444E-03
 -0.28726E-02
  0.58690E-02
  0.13928E-01
  0.23477E-01
  0.34443E-01
  0.21282E-02
  0.20832E-01
 -0.30926E-03
  0.11875E-01
 -0.35958E-02
 -0.21760E-01
 -0.14406E-01
  0.59410E-02
 -0.27997E-02
  0.21150E-01
 -0.71010E-02
  0.18536E-01
 -0.23633E-01
 -0.37284E-01
 -0.35836E-01
  0.18711E-02
 -0.24025E-01
  0.34354E-01
  0.49006E-02
  0.17525E-01
 -0.27319E-02
  0.27717E-01
  0.32964E-01
  0.24368E-01
 -0.40268E-01
 -0.59985E-03
  0.21109E-02
  0.12407E-01
 -0.10843E-01
 -0.25997E-02
  0.15313E-01
  0.19053E-01
 -0.38679E-01
  0.61968E-03
  0.21731E-01
  0.11559E-02
  0.40360E-01
 -0.10066E-02
 -0.13746E-01
  0.22444E-01
 -0.89386E-02
  0.15798E-01
  0.44336E-02
  0.16297E-01
  0.16160E-03
  0.18469E-01
 -0.15705E-01
 -0.14391E-01
  0.20111E-01
  0.25644E-01
 -0.68313E-02
 -0.35959E-02
  0.28087E-01
 -0.27498E-01
 -0.21563E-01
 -0.39737E-02
  0.22272E-01
 -0.40088E-01
 -0.50715E-01
 -0.79902E-03
  0.18309E-01
 -0.16473E-01
 -0.21257E-01
 -0.36797E-01
  0.29789E-01
  0.38000E-02
  0.30733E-01
  0.22080E-01
 -0.37739E-02
 -0.14994E-01
  0.21578E-01
  0.10052E-01
 -0.13557E-02
  0.22976E-01
  0.28966E-01
  0.19858E-01
  0.18310E-01
  0.29344E-01
  0.27424E-01
  0.34367E-02
  0.20560E-01
 -0.33536E-01
 -0.21671E-01
  0.20471E-01
 -0.10815E-01
  0.26790E-01
  0.16136E-01
  0.17695E-02
  0.24488E-01
  0.21451E-01
  0.32574E-02
  0.23083E-01
  0.26284E-01
 -0.16929E-02
  0.20692E-01
  0.29145E-02
  0.20966E-01
 -0.13848E-01
  0.99779E-02
  0.28633E-01
  0.17625E-01
 -0.33624E-01
  0.24344E-01
  0.30665E-01
  0.69810E-03
 -0.37959E-01
  0.31945E-01
  0.16897E-01
  0.15759E-01
  0.12936E-01
  0.30999E-01
 -0.16469E-01
  0.20672E-01
  0.24945E-01
  0.18749E-04
  0.20505E-01
  0.27398E-01
  0.15766E-01
  0.35823E-01
  0.34198E-01
  0.21434E-01
 -0.10948E-01
  0.19659E-01
  0.19050E-01
 -0.61373E-02
 -0.23588E-01