# vtk DataFile Version 2.0
Unstructured Grid UFVM-ECOMOD
ASCII
DATASET UNSTRUCTURED_GRID
 POINTS         1724  float
  0.00000E+00  0.00000E+00  0.00000E+00
  0.40000E+01  0.00000E+00  0.00000E+00
  0.40000E+01  0.20000E+01  0.00000E+00
  0.00000E+00  0.20000E+01  0.00000E+00
  0.15750E+01  0.10287E+01  0.00000E+00
  0.15677E+01  0.97091E+00  0.00000E+00
  0.15461E+01  0.91674E+00  0.00000E+00
  0.15118E+01  0.86961E+00  0.00000E+00
  0.14667E+01  0.83248E+00  0.00000E+00
  0.14138E+01  0.80767E+00  0.00000E+00
  0.13563E+01  0.79675E+00  0.00000E+00
  0.12979E+01  0.80041E+00  0.00000E+00
  0.12423E+01  0.81842E+00  0.00000E+00
  0.11929E+01  0.84963E+00  0.00000E+00
  0.11529E+01  0.89210E+00  0.00000E+00
  0.11247E+01  0.94315E+00  0.00000E+00
  0.11102E+01  0.99958E+00  0.00000E+00
  0.11102E+01  0.10578E+01  0.00000E+00
  0.11247E+01  0.11143E+01  0.00000E+00
  0.11529E+01  0.11653E+01  0.00000E+00
  0.11929E+01  0.12078E+01  0.00000E+00
  0.12423E+01  0.12390E+01  0.00000E+00
  0.12979E+01  0.12570E+01  0.00000E+00
  0.13563E+01  0.12607E+01  0.00000E+00
  0.14138E+01  0.12497E+01  0.00000E+00
  0.14667E+01  0.12249E+01  0.00000E+00
  0.15118E+01  0.11878E+01  0.00000E+00
  0.15461E+01  0.11407E+01  0.00000E+00
  0.15677E+01  0.10865E+01  0.00000E+00
  0.10000E+00  0.00000E+00  0.00000E+00
  0.20000E+00  0.00000E+00  0.00000E+00
  0.30000E+00  0.00000E+00  0.00000E+00
  0.40000E+00  0.00000E+00  0.00000E+00
  0.50000E+00  0.00000E+00  0.00000E+00
  0.60000E+00  0.00000E+00  0.00000E+00
  0.70000E+00  0.00000E+00  0.00000E+00
  0.80000E+00  0.00000E+00  0.00000E+00
  0.90000E+00  0.00000E+00  0.00000E+00
  0.10000E+01  0.00000E+00  0.00000E+00
  0.11000E+01  0.00000E+00  0.00000E+00
  0.12000E+01  0.00000E+00  0.00000E+00
  0.13000E+01  0.00000E+00  0.00000E+00
  0.14000E+01  0.00000E+00  0.00000E+00
  0.15000E+01  0.00000E+00  0.00000E+00
  0.16000E+01  0.00000E+00  0.00000E+00
  0.17000E+01  0.00000E+00  0.00000E+00
  0.18000E+01  0.00000E+00  0.00000E+00
  0.19000E+01  0.00000E+00  0.00000E+00
  0.20000E+01  0.00000E+00  0.00000E+00
  0.21000E+01  0.00000E+00  0.00000E+00
  0.22000E+01  0.00000E+00  0.00000E+00
  0.23000E+01  0.00000E+00  0.00000E+00
  0.24000E+01  0.00000E+00  0.00000E+00
  0.25000E+01  0.00000E+00  0.00000E+00
  0.26000E+01  0.00000E+00  0.00000E+00
  0.27000E+01  0.00000E+00  0.00000E+00
  0.28000E+01  0.00000E+00  0.00000E+00
  0.29000E+01  0.00000E+00  0.00000E+00
  0.30000E+01  0.00000E+00  0.00000E+00
  0.31000E+01  0.00000E+00  0.00000E+00
  0.32000E+01  0.00000E+00  0.00000E+00
  0.33000E+01  0.00000E+00  0.00000E+00
  0.34000E+01  0.00000E+00  0.00000E+00
  0.35000E+01  0.00000E+00  0.00000E+00
  0.36000E+01  0.00000E+00  0.00000E+00
  0.37000E+01  0.00000E+00  0.00000E+00
  0.38000E+01  0.00000E+00  0.00000E+00
  0.39000E+01  0.00000E+00  0.00000E+00
  0.40000E+01  0.10000E+00  0.00000E+00
  0.40000E+01  0.20000E+00  0.00000E+00
  0.40000E+01  0.30000E+00  0.00000E+00
  0.40000E+01  0.40000E+00  0.00000E+00
  0.40000E+01  0.50000E+00  0.00000E+00
  0.40000E+01  0.60000E+00  0.00000E+00
  0.40000E+01  0.70000E+00  0.00000E+00
  0.40000E+01  0.80000E+00  0.00000E+00
  0.40000E+01  0.90000E+00  0.00000E+00
  0.40000E+01  0.10000E+01  0.00000E+00
  0.40000E+01  0.11000E+01  0.00000E+00
  0.40000E+01  0.12000E+01  0.00000E+00
  0.40000E+01  0.13000E+01  0.00000E+00
  0.40000E+01  0.14000E+01  0.00000E+00
  0.40000E+01  0.15000E+01  0.00000E+00
  0.40000E+01  0.16000E+01  0.00000E+00
  0.40000E+01  0.17000E+01  0.00000E+00
  0.40000E+01  0.18000E+01  0.00000E+00
  0.40000E+01  0.19000E+01  0.00000E+00
  0.39000E+01  0.20000E+01  0.00000E+00
  0.38000E+01  0.20000E+01  0.00000E+00
  0.37000E+01  0.20000E+01  0.00000E+00
  0.36000E+01  0.20000E+01  0.00000E+00
  0.35000E+01  0.20000E+01  0.00000E+00
  0.34000E+01  0.20000E+01  0.00000E+00
  0.33000E+01  0.20000E+01  0.00000E+00
  0.32000E+01  0.20000E+01  0.00000E+00
  0.31000E+01  0.20000E+01  0.00000E+00
  0.30000E+01  0.20000E+01  0.00000E+00
  0.29000E+01  0.20000E+01  0.00000E+00
  0.28000E+01  0.20000E+01  0.00000E+00
  0.27000E+01  0.20000E+01  0.00000E+00
  0.26000E+01  0.20000E+01  0.00000E+00
  0.25000E+01  0.20000E+01  0.00000E+00
  0.24000E+01  0.20000E+01  0.00000E+00
  0.23000E+01  0.20000E+01  0.00000E+00
  0.22000E+01  0.20000E+01  0.00000E+00
  0.21000E+01  0.20000E+01  0.00000E+00
  0.20000E+01  0.20000E+01  0.00000E+00
  0.19000E+01  0.20000E+01  0.00000E+00
  0.18000E+01  0.20000E+01  0.00000E+00
  0.17000E+01  0.20000E+01  0.00000E+00
  0.16000E+01  0.20000E+01  0.00000E+00
  0.15000E+01  0.20000E+01  0.00000E+00
  0.14000E+01  0.20000E+01  0.00000E+00
  0.13000E+01  0.20000E+01  0.00000E+00
  0.12000E+01  0.20000E+01  0.00000E+00
  0.11000E+01  0.20000E+01  0.00000E+00
  0.10000E+01  0.20000E+01  0.00000E+00
  0.90000E+00  0.20000E+01  0.00000E+00
  0.80000E+00  0.20000E+01  0.00000E+00
  0.70000E+00  0.20000E+01  0.00000E+00
  0.60000E+00  0.20000E+01  0.00000E+00
  0.50000E+00  0.20000E+01  0.00000E+00
  0.40000E+00  0.20000E+01  0.00000E+00
  0.30000E+00  0.20000E+01  0.00000E+00
  0.20000E+00  0.20000E+01  0.00000E+00
  0.10000E+00  0.20000E+01  0.00000E+00
  0.00000E+00  0.19000E+01  0.00000E+00
  0.00000E+00  0.18000E+01  0.00000E+00
  0.00000E+00  0.17000E+01  0.00000E+00
  0.00000E+00  0.16000E+01  0.00000E+00
  0.00000E+00  0.15000E+01  0.00000E+00
  0.00000E+00  0.14000E+01  0.00000E+00
  0.00000E+00  0.13000E+01  0.00000E+00
  0.00000E+00  0.12000E+01  0.00000E+00
  0.00000E+00  0.11000E+01  0.00000E+00
  0.00000E+00  0.10000E+01  0.00000E+00
  0.00000E+00  0.90000E+00  0.00000E+00
  0.00000E+00  0.80000E+00  0.00000E+00
  0.00000E+00  0.70000E+00  0.00000E+00
  0.00000E+00  0.60000E+00  0.00000E+00
  0.00000E+00  0.50000E+00  0.00000E+00
  0.00000E+00  0.40000E+00  0.00000E+00
  0.00000E+00  0.30000E+00  0.00000E+00
  0.00000E+00  0.20000E+00  0.00000E+00
  0.00000E+00  0.10000E+00  0.00000E+00
  0.15713E+01  0.99981E+00  0.00000E+00
  0.15569E+01  0.94382E+00  0.00000E+00
  0.15290E+01  0.89318E+00  0.00000E+00
  0.14892E+01  0.85104E+00  0.00000E+00
  0.14402E+01  0.82007E+00  0.00000E+00
  0.13850E+01  0.80221E+00  0.00000E+00
  0.13271E+01  0.79858E+00  0.00000E+00
  0.12701E+01  0.80941E+00  0.00000E+00
  0.12176E+01  0.83402E+00  0.00000E+00
  0.11729E+01  0.87086E+00  0.00000E+00
  0.11388E+01  0.91762E+00  0.00000E+00
  0.11175E+01  0.97136E+00  0.00000E+00
  0.11102E+01  0.10287E+01  0.00000E+00
  0.11175E+01  0.10860E+01  0.00000E+00
  0.11388E+01  0.11398E+01  0.00000E+00
  0.11729E+01  0.11865E+01  0.00000E+00
  0.12176E+01  0.12234E+01  0.00000E+00
  0.12701E+01  0.12480E+01  0.00000E+00
  0.13271E+01  0.12588E+01  0.00000E+00
  0.13850E+01  0.12552E+01  0.00000E+00
  0.14402E+01  0.12373E+01  0.00000E+00
  0.14892E+01  0.12064E+01  0.00000E+00
  0.15290E+01  0.11642E+01  0.00000E+00
  0.15569E+01  0.11136E+01  0.00000E+00
  0.15713E+01  0.10576E+01  0.00000E+00
  0.15994E+01  0.10133E+01  0.00000E+00
  0.15863E+01  0.11089E+01  0.00000E+00
  0.25478E+01  0.10053E+00  0.00000E+00
  0.25434E+01  0.19142E+01  0.00000E+00
  0.11238E+01  0.89266E+00  0.00000E+00
  0.11061E+01  0.11423E+01  0.00000E+00
  0.15575E+01  0.89126E+00  0.00000E+00
  0.10894E+01  0.97917E+00  0.00000E+00
  0.15393E+01  0.11910E+01  0.00000E+00
  0.11627E+01  0.12175E+01  0.00000E+00
  0.14962E+01  0.82262E+00  0.00000E+00
  0.29512E+01  0.95010E-01  0.00000E+00
  0.29494E+01  0.19117E+01  0.00000E+00
  0.39186E+01  0.10466E+01  0.00000E+00
  0.11913E+01  0.82197E+00  0.00000E+00
  0.12788E+01  0.78594E+00  0.00000E+00
  0.21500E+01  0.86600E-01  0.00000E+00
  0.21472E+01  0.19005E+01  0.00000E+00
  0.14041E+01  0.78007E+00  0.00000E+00
  0.14641E+01  0.12550E+01  0.00000E+00
  0.13764E+01  0.12826E+01  0.00000E+00
  0.99450E-01  0.63780E+00  0.00000E+00
  0.92450E-01  0.13422E+01  0.00000E+00
  0.12473E+01  0.12677E+01  0.00000E+00
  0.65677E+00  0.19154E+01  0.00000E+00
  0.86110E-01  0.10467E+01  0.00000E+00
  0.75000E+00  0.86600E-01  0.00000E+00
  0.33379E+01  0.88030E-01  0.00000E+00
  0.33490E+01  0.19201E+01  0.00000E+00
  0.18500E+01  0.86600E-01  0.00000E+00
  0.18441E+01  0.19006E+01  0.00000E+00
  0.38922E+01  0.64055E+00  0.00000E+00
  0.39154E+01  0.13500E+01  0.00000E+00
  0.10564E+01  0.85180E-01  0.00000E+00
  0.94817E+00  0.19249E+01  0.00000E+00
  0.15421E+01  0.85450E-01  0.00000E+00
  0.15479E+01  0.19161E+01  0.00000E+00
  0.12386E+01  0.19130E+01  0.00000E+00
  0.45294E+00  0.85030E-01  0.00000E+00
  0.86890E-01  0.16531E+01  0.00000E+00
  0.36495E+01  0.78620E-01  0.00000E+00
  0.36510E+01  0.19107E+01  0.00000E+00
  0.10846E+01  0.10423E+01  0.00000E+00
  0.15860E+01  0.94842E+00  0.00000E+00
  0.13392E+01  0.77093E+00  0.00000E+00
  0.13108E+01  0.12864E+01  0.00000E+00
  0.87300E-01  0.35008E+00  0.00000E+00
  0.34468E+00  0.19176E+01  0.00000E+00
  0.39135E+01  0.16499E+01  0.00000E+00
  0.39252E+01  0.34254E+00  0.00000E+00
  0.13680E+01  0.88360E-01  0.00000E+00
  0.88350E-01  0.84594E+00  0.00000E+00
  0.23513E+01  0.77830E-01  0.00000E+00
  0.23488E+01  0.19154E+01  0.00000E+00
  0.27481E+01  0.80910E-01  0.00000E+00
  0.31480E+01  0.84140E-01  0.00000E+00
  0.31513E+01  0.19149E+01  0.00000E+00
  0.27502E+01  0.19198E+01  0.00000E+00
  0.39134E+01  0.85000E+00  0.00000E+00
  0.25071E+00  0.86200E-01  0.00000E+00
  0.91130E-01  0.18412E+01  0.00000E+00
  0.38461E+01  0.84360E-01  0.00000E+00
  0.38408E+01  0.19092E+01  0.00000E+00
  0.97440E-01  0.15849E+00  0.00000E+00
  0.15988E+01  0.10458E+01  0.00000E+00
  0.16261E+01  0.10305E+01  0.00000E+00
  0.16281E+01  0.99836E+00  0.00000E+00
  0.16554E+01  0.10148E+01  0.00000E+00
  0.16578E+01  0.98164E+00  0.00000E+00
  0.16863E+01  0.99914E+00  0.00000E+00
  0.16884E+01  0.96239E+00  0.00000E+00
  0.17222E+01  0.98417E+00  0.00000E+00
  0.17231E+01  0.93952E+00  0.00000E+00
  0.17605E+01  0.96435E+00  0.00000E+00
  0.17576E+01  0.10098E+01  0.00000E+00
  0.17991E+01  0.98970E+00  0.00000E+00
  0.17625E+01  0.91931E+00  0.00000E+00
[...]
 POINT_DATA         1724
  
 SCALARS WL      float 1
 LOOKUP_TABLE default
  0.20910E-01
  0.51887E-02
  0.60954E-05
  0.32938E-01
 -0.45023E-01
 -0.32515E-01
 -0.18896E-01
 -0.16013E-01
 -0.15652E-01
 -0.12894E-01
 -0.12937E-01
 -0.14244E-01
 -0.30246E-02
  0.92512E-02
  0.25664E-01
  0.36996E-01
  0.43620E-01
  0.43542E-01
  0.36503E-01
  0.23757E-01
  0.38619E-02
 -0.19599E-01
 -0.44713E-01
 -0.64691E-01
 -0.44924E-01
 -0.34380E-01
 -0.34035E-01
 -0.38574E-01
 -0.43363E-01
  0.20747E-01
  0.20438E-01
  0.20001E-01
  0.19494E-01
  0.18930E-01
  0.18352E-01
  0.17858E-01
  0.17573E-01
  0.17507E-01
  0.17884E-01
  0.18551E-01
  0.19283E-01
  0.19966E-01
  0.20256E-01
  0.19909E-01
  0.19565E-01
  0.19466E-01
  0.19749E-01
  0.20381E-01
  0.20615E-01
  0.20711E-01
  0.20483E-01
  0.20416E-01
  0.20700E-01
  0.22026E-01
  0.24262E-01
  0.27104E-01
  0.29779E-01
  0.31911E-01
  0.33445E-01
  0.33905E-01
  0.33585E-01
  0.32736E-01
  0.31168E-01
  0.29070E-01
  0.25915E-01
  0.21910E-01
  0.16554E-01
  0.96402E-02
  0.00000E+00
  0.00000E+00
  0.00000E+00
  0.00000E+00
  0.00000E+00
  0.00000E+00
  0.00000E+00
  0.00000E+00
  0.00000E+00
  0.00000E+00
  0.00000E+00
  0.00000E+00
  0.00000E+00
  0.00000E+00
  0.00000E+00
  0.00000E+00
  0.00000E+00
  0.00000E+00
  0.00000E+00
 -0.37202E-03
 -0.16202E-02
 -0.23382E-02
 -0.23912E-02
 -0.16567E-02
 -0.20655E-03
  0.11648E-02
  0.23195E-02
  0.32324E-02
  0.32346E-02
  0.25644E-02
  0.18051E-02
  0.12544E-02
  0.76921E-03
  0.55875E-03
  0.62907E-03
  0.84176E-03
  0.10764E-02
  0.11973E-02
  0.89467E-03
  0.40891E-03
 -0.30684E-04
 -0.17220E-03
  0.48941E-03
  0.21977E-02
  0.47592E-02
  0.78692E-02
  0.11157E-01
  0.14295E-01
  0.17165E-01
  0.19740E-01
  0.21917E-01
  0.23823E-01
  0.25501E-01
  0.27084E-01
  0.28622E-01
  0.29987E-01
  0.31250E-01
  0.32326E-01
  0.32998E-01
  0.32996E-01
  0.32926E-01
  0.32777E-01
  0.32452E-01
  0.31962E-01
  0.31317E-01
  0.30406E-01
  0.29370E-01
  0.28202E-01
  0.26992E-01
  0.25837E-01
  0.24679E-01
  0.23711E-01
  0.22876E-01
  0.22187E-01
  0.21647E-01
  0.21258E-01
  0.21010E-01
 -0.40971E-01
 -0.24299E-01
 -0.15644E-01
 -0.16299E-01
 -0.14300E-01
 -0.12743E-01
 -0.14694E-01
 -0.11417E-01
  0.18481E-02
  0.18111E-01
  0.32061E-01
  0.41554E-01
  0.44349E-01
  0.41342E-01
  0.31172E-01
  0.14173E-01
 -0.68219E-02
 -0.31549E-01
 -0.57835E-01
 -0.59628E-01
 -0.36208E-01
 -0.33847E-01
 -0.35877E-01
 -0.41168E-01
 -0.45618E-01
 -0.40832E-01
 -0.40943E-01
  0.22803E-01
  0.81765E-03
  0.30301E-01
  0.33892E-01
 -0.16776E-01
  0.42466E-01
 -0.34103E-01
  0.12453E-01
 -0.16617E-01
  0.32019E-01
  0.27715E-02
  0.66824E-03
  0.77069E-02
 -0.11058E-01
  0.20563E-01
  0.12696E-02
 -0.11971E-01
 -0.34228E-01
 -0.59247E-01
  0.24186E-01
  0.31618E-01
 -0.20774E-01
  0.24687E-01
  0.28980E-01
  0.17845E-01
  0.31820E-01
  0.44094E-03
  0.20062E-01
 -0.64349E-04
 -0.37509E-02
  0.39103E-02
  0.18316E-01
  0.18547E-01
  0.19285E-01
  0.89126E-03
  0.97019E-02
  0.19309E-01
  0.32496E-01
  0.23892E-01
 -0.22191E-02
  0.43850E-01
 -0.26768E-01
 -0.12301E-01
 -0.45551E-01
  0.21834E-01
  0.29412E-01
  0.11535E-02
  0.59595E-02
  0.19717E-01
  0.26601E-01
  0.20372E-01
  0.92814E-03
  0.28073E-01
  0.33342E-01
  0.29071E-02
  0.16192E-02
 -0.55467E-02
  0.20316E-01
  0.32472E-01
  0.13193E-01
 -0.86294E-03
  0.20988E-01
 -0.43603E-01
 -0.39612E-01
 -0.37160E-01
 -0.37927E-01
 -0.35008E-01
 -0.36889E-01
 -0.33600E-01
 -0.35965E-01
 -0.31504E-01
 -0.33962E-01
 -0.37704E-01
 -0.35052E-01
 -0.28181E-01
 -0.37996E-01
 -0.33609E-01
 -0.34312E-01
 -0.28484E-01
 -0.26356E-01
 -0.21137E-01
 -0.22824E-01
 -0.16665E-01
 -0.18188E-01
 -0.14077E-01
 -0.15362E-01
 -0.13456E-01
 -0.14806E-01
 -0.14947E-01
 -0.14318E-01
 -0.16894E-01
 -0.18647E-01
 -0.13567E-01
 -0.18015E-01
 -0.13019E-01
 -0.10692E-01
 -0.14507E-01
 -0.21508E-01
 -0.16016E-01
 -0.20693E-01
 -0.13579E-01
 -0.93430E-02
 -0.73402E-02
 -0.83265E-02
 -0.41369E-02
 -0.38379E-02
 -0.30646E-02
 -0.96157E-03
 -0.22771E-02
 -0.42316E-02
 -0.54957E-02
 -0.14938E-02
 -0.65634E-02
 -0.62692E-03
 -0.67846E-02
 -0.13489E-01
 -0.13996E-01
 -0.58415E-02
 -0.21053E-01
 -0.20117E-01
 -0.26019E-01
 -0.31583E-01
 -0.23089E-01
 -0.26291E-01
 -0.26938E-01
 -0.15397E-01
 -0.72091E-02
 -0.99933E-02
  0.11721E-02
 -0.25791E-02
  0.86660E-02
 -0.21424E-01
 -0.17254E-01
 -0.21910E-01
  0.48459E-02
  0.11240E-01
  0.17195E-01
  0.19061E-01
  0.21977E-01
  0.23036E-01
 -0.16250E-01
 -0.14925E-01
  0.22891E-01
  0.21772E-01
 -0.24800E-01
  0.20704E-01
  0.17860E-01
  0.17916E-01
  0.14644E-01
  0.13769E-01
  0.10600E-01
  0.85442E-02
  0.61459E-02
  0.89250E-02
  0.55296E-02
 -0.66303E-02
  0.25477E-02
 -0.48080E-02
  0.57675E-02
  0.29779E-02
  0.22361E-01
 -0.20352E-01
  0.86743E-02
  0.62929E-02
 -0.16747E-01
  0.18898E-02
 -0.97722E-02
 -0.79641E-02
 -0.11282E-01
 -0.55569E-02
  0.96083E-02
  0.79842E-02
  0.46680E-02
  0.72496E-02
  0.11493E-01
  0.10881E-01
  0.10795E-01
  0.41760E-02
  0.74045E-02
  0.99422E-02
  0.10600E-01
  0.12570E-01
  0.13431E-01
  0.11800E-01
  0.14757E-01
  0.13631E-01
  0.16535E-01
  0.15997E-01
  0.18694E-01
  0.18679E-01
  0.20523E-01
  0.20976E-01
  0.22407E-01
  0.23326E-01
  0.24186E-01
  0.25460E-01
  0.25746E-01
  0.27222E-01
  0.26979E-01
  0.28566E-01
  0.27942E-01
  0.29486E-01
  0.28609E-01
  0.29975E-01
  0.27223E-01
  0.29002E-01
  0.30175E-01
  0.29182E-01
  0.30196E-01
  0.31207E-01
  0.30995E-01
  0.31977E-01
  0.31531E-01
  0.32442E-01
  0.31767E-01
  0.32511E-01
  0.31685E-01
  0.32192E-01
  0.31296E-01
  0.31517E-01
  0.30627E-01
  0.30471E-01
  0.29717E-01
  0.29152E-01
  0.30606E-01
  0.31037E-01
  0.28638E-01
  0.27690E-01
  0.24492E-01
  0.29333E-01
  0.28246E-01
  0.27479E-01
  0.28405E-01
  0.26263E-01
  0.26263E-01
  0.24637E-01
  0.24270E-01
  0.22590E-01
  0.21639E-01
  0.20053E-01
  0.18328E-01
  0.28443E-01
  0.27295E-01
  0.20153E-01
  0.33238E-01
  0.27420E-01
  0.28388E-01
  0.26398E-01
  0.30310E-01
  0.32675E-01
  0.17087E-01
  0.14447E-01
  0.23325E-01
  0.27553E-01
  0.28530E-01
  0.27543E-01
  0.26403E-01
  0.15223E-01
  0.13744E-01
  0.10394E-01
  0.19961E-01
  0.26928E-01
  0.28608E-01
  0.29174E-01
  0.29359E-01
  0.29805E-01
 -0.39215E-01
  0.26046E-01
  0.25189E-01
  0.24699E-01
  0.23914E-01
  0.23324E-01
  0.11534E-01
  0.27882E-01
  0.22656E-01
 -0.69940E-02
 -0.10611E-01
 -0.14207E-01
  0.21587E-01
  0.10498E-01
  0.56764E-02
  0.63848E-02
  0.10090E-02
  0.25879E-02
 -0.29291E-02
 -0.59357E-03
 -0.57575E-02
 -0.91840E-02
 -0.12489E-01
 -0.74184E-02
 -0.12199E-01
 -0.17908E-01
 -0.15891E-01
 -0.11032E-01
 -0.13152E-01
 -0.93270E-02
 -0.99404E-02
 -0.13351E-01
 -0.95238E-02
 -0.12761E-01
 -0.91282E-02
 -0.62870E-02
 -0.57386E-02
 -0.35064E-02
 -0.26746E-02
 -0.12551E-02
 -0.29092E-03
  0.51474E-03
  0.15957E-02
  0.64935E-03
  0.24659E-02
  0.28313E-02
  0.39483E-02
  0.38250E-02
  0.49961E-02
  0.34092E-02
 -0.51310E-02
  0.94892E-02
  0.15926E-01
  0.16080E-01
  0.44798E-02
  0.57743E-02
  0.26773E-01
 -0.29474E-02
  0.22027E-01
  0.22685E-01
 -0.20307E-02
  0.60644E-02
  0.68148E-02
  0.57938E-02
  0.60914E-02
  0.53644E-02
  0.53607E-02
 -0.17081E-01
 -0.16953E-01
  0.41766E-02
  0.37497E-02
 -0.10288E-01
 -0.48948E-02
 -0.54759E-02
  0.26732E-01
  0.37409E-02
  0.10962E-01
 -0.17833E-01
 -0.66422E-02
  0.55460E-02
  0.90655E-02
  0.10959E-01
  0.13634E-01
  0.15310E-01
  0.17393E-01
  0.18805E-01
  0.16459E-01
  0.19957E-01
  0.17320E-01
  0.20474E-01
  0.20976E-01
  0.18052E-01
  0.13999E-01
  0.14490E-01
  0.10085E-01
  0.10413E-01
  0.14936E-01
  0.10596E-01
  0.63518E-02
  0.15510E-01
  0.10785E-01
  0.42361E-02
  0.19674E-02
  0.19812E-02
 -0.78598E-02
  0.66098E-02
 -0.56334E-03
  0.24548E-03
  0.23245E-01
  0.22132E-01
 -0.10219E-01
 -0.69430E-02
  0.68637E-02
  0.11208E-01
  0.16257E-01
  0.19234E-01
  0.16052E-01
 -0.22151E-01
 -0.26702E-01
  0.20212E-01
  0.18234E-01
  0.22097E-01
 -0.10878E-02
  0.27243E-01
  0.28377E-01
 -0.17730E-02
  0.14454E-04
 -0.89571E-05
  0.16173E-01
 -0.88208E-03
 -0.18669E-02
 -0.21105E-01
 -0.23142E-01
 -0.53430E-02
  0.30065E-01
  0.30310E-01
 -0.38347E-02
 -0.29207E-02
  0.10840E-01
  0.61053E-02
 -0.34464E-02
 -0.13214E-02
 -0.16619E-01
 -0.35594E-01
 -0.72582E-02
  0.14372E-01
  0.16339E-01
 -0.59980E-02
 -0.22072E-02
  0.21379E-01
  0.21952E-01
 -0.28679E-03
  0.20135E-01
  0.26949E-02
  0.23171E-01
 -0.14529E-01
 -0.77058E-02
 -0.15199E-01
 -0.99282E-02
 -0.18665E-01
 -0.16521E-02
  0.16294E-01
  0.45349E-02
 -0.17543E-01
  0.10972E-01
 -0.12958E-02
  0.22708E-01
  0.20625E-01
 -0.27873E-01
  0.19505E-02
  0.21776E-01
 -0.91546E-02
  0.30130E-01
  0.30411E-01
  0.30293E-01
  0.30324E-01
  0.30532E-01
  0.30241E-01
  0.30028E-01
  0.18779E-01
  0.25970E-01
 -0.16788E-01
 -0.11798E-01
  0.11086E-01
  0.13639E-02
  0.23533E-02
 -0.24935E-03
  0.44396E-03
 -0.19672E-01
  0.27883E-01
  0.29002E-01
  0.20863E-01
  0.20483E-01
  0.21231E-01
  0.23805E-01
 -0.26568E-01
 -0.24867E-01
 -0.18431E-02
 -0.42908E-02
 -0.32401E-02
 -0.16695E-01
 -0.11674E-01
 -0.14449E-01
 -0.99572E-02
 -0.11462E-01
  0.10568E-01
 -0.72191E-02
 -0.82807E-02
  0.22671E-01
  0.21820E-01
  0.20491E-01
  0.20928E-01
  0.19756E-01
  0.20062E-01
  0.15826E-01
 -0.29560E-01
 -0.12427E-01
  0.30636E-01
  0.30482E-01
  0.18649E-01
 -0.21398E-01
  0.10160E-02
 -0.58984E-02
  0.65780E-03
  0.37424E-03
  0.16089E-01
  0.17569E-01
  0.17800E-01
  0.19231E-02
  0.16165E-01
  0.20540E-01
 -0.31138E-01
 -0.19191E-01
  0.12539E-01
  0.29955E-01
  0.29506E-01
  0.29657E-01
  0.28920E-01
 -0.97107E-02
  0.20982E-01
 -0.28727E-01
 -0.28580E-01
 -0.26057E-01
 -0.31190E-01
  0.23234E-01
  0.24380E-01
  0.32992E-02
 -0.26080E-02
 -0.43269E-02
  0.93393E-02
  0.49915E-02
 -0.67813E-02
  0.20137E-01
  0.21077E-01
  0.20836E-01
  0.21173E-01
 -0.31145E-01
  0.29998E-01
  0.25375E-01
  0.24523E-01
  0.46510E-02
  0.18475E-01
  0.25590E-01
  0.36494E-02
  0.26170E-02
  0.18603E-01
 -0.13065E-01
 -0.19785E-01
  0.16654E-01
  0.17811E-01
  0.19189E-01
  0.18715E-01
 -0.30041E-01
 -0.34022E-01
 -0.39873E-01
 -0.75902E-02
 -0.22047E-02
 -0.35814E-02
  0.11563E-01
  0.45879E-02
  0.60634E-02
 -0.22947E-02
  0.98146E-03
 -0.23591E-02
  0.31093E-01
  0.31008E-01
  0.19321E-01
 -0.42343E-02
 -0.44763E-02
 -0.27134E-02
 -0.20015E-02
  0.28620E-01
  0.29751E-01
  0.27427E-01
 -0.31327E-02
 -0.18095E-02
 -0.65456E-03
  0.30355E-01
 -0.74570E-02
 -0.38850E-02
 -0.69247E-02
  0.31073E-01
  0.23766E-01
  0.22899E-01
  0.21861E-01
  0.30196E-02
  0.45462E-02
 -0.14944E-01
  0.70400E-02
  0.14633E-03
 -0.31854E-02
 -0.10346E-02
 -0.45599E-02
 -0.36310E-01
 -0.35536E-01
 -0.37935E-01
  0.28739E-01
  0.27964E-01
  0.28253E-01
  0.27136E-01
  0.49826E-03
  0.21168E-01
  0.21030E-01
  0.50655E-02
  0.21008E-01
  0.19799E-01
  0.22252E-01
 -0.13852E-01
 -0.15281E-01
  0.20941E-01
  0.20818E-01
  0.20712E-01
  0.20061E-01
  0.22254E-01
  0.13229E-01
  0.15641E-01
  0.12880E-01
  0.15288E-01
 -0.25356E-01
  0.25295E-01
  0.12694E-01
  0.10041E-01
 -0.35994E-01
 -0.34109E-01
 -0.76977E-02
 -0.46187E-02
  0.31622E-01
 -0.25658E-02
  0.19789E-01
 -0.27088E-01
 -0.31809E-01
 -0.37835E-01
 -0.35958E-01
 -0.27303E-01
 -0.27694E-01
 -0.21677E-02
 -0.10780E-02
  0.18684E-01
  0.21552E-01
  0.23123E-01
  0.23805E-01
  0.25651E-01
  0.25877E-01
  0.23765E-01
  0.19222E-01
  0.18800E-01
  0.19677E-01
  0.18925E-01
  0.26845E-01
  0.25885E-01
  0.15888E-01
  0.17465E-01
  0.15864E-01
 -0.14128E-01
  0.15278E-01
  0.98198E-02
  0.42463E-02
  0.20404E-01
  0.20076E-02
  0.18156E-02
  0.20114E-02
  0.18738E-01
 -0.22876E-01
  0.12314E-02
  0.16365E-02
 -0.38469E-01
 -0.37051E-01
 -0.25456E-01
 -0.18068E-01
 -0.14279E-01
 -0.22608E-01
 -0.88632E-02
 -0.12893E-01
 -0.23987E-02
 -0.43767E-02
  0.44888E-02
  0.41637E-02
  0.11543E-01
  0.10410E-01
  0.16040E-01
  0.18147E-01
  0.20903E-01
  0.23531E-01
  0.24815E-01
  0.27659E-01
  0.26941E-01
  0.30975E-01
  0.30364E-01
  0.33223E-01
  0.31992E-01
  0.34193E-01
  0.35822E-01
  0.36144E-01
  0.38090E-01
  0.37534E-01
  0.39549E-01
  0.38285E-01
  0.36556E-01
  0.36823E-01
  0.38427E-01
  0.36445E-01
  0.37244E-01
  0.35542E-01
  0.35776E-01
  0.37440E-01
  0.35362E-01
  0.33918E-01
  0.32877E-01
  0.36988E-01
  0.35419E-01
  0.31879E-01
  0.30280E-01
  0.30840E-01
  0.27726E-01
  0.26721E-01
  0.24224E-01
  0.37745E-01
  0.29751E-01
  0.32704E-01
  0.21571E-01
  0.19658E-01
  0.22288E-01
  0.18374E-01
  0.14524E-01
  0.14241E-01
  0.94046E-02
  0.10323E-01
  0.50045E-02
  0.69917E-02
  0.20122E-02
  0.46488E-02
  0.14406E-01
  0.30867E-01
  0.32791E-01
  0.24349E-01
  0.34907E-01
  0.33918E-01
  0.39165E-01
  0.35050E-01
  0.25503E-01
  0.86159E-02
  0.21563E-01
  0.20932E-01
  0.27412E-02
  0.19987E-01
 -0.38298E-01
 -0.21197E-01
 -0.24474E-01
  0.58361E-02
 -0.30867E-01
  0.17759E-01
  0.16312E-01
  0.28092E-01
  0.27588E-01
  0.34294E-02
 -0.14633E-02
  0.11459E-02
 -0.46897E-02
  0.11333E-01
 -0.71883E-02
  0.40966E-02
  0.38345E-01
  0.10164E-02
  0.20978E-01
 -0.98842E-03
 -0.81511E-02
  0.17205E-01
 -0.48955E-02
 -0.85673E-02
  0.45492E-02
 -0.39854E-01
  0.24769E-04
  0.35119E-01
  0.39398E-01
 -0.13344E-01
 -0.33458E-01
 -0.78829E-02
  0.25054E-01
  0.17542E-01
  0.18601E-01
  0.31596E-01
  0.25207E-01
  0.23121E-01
  0.94166E-02
 -0.40601E-02
 -0.64111E-02
 -0.38021E-02
  0.20589E-01
  0.24992E-01
 -0.33559E-01
  0.18468E-01
  0.29360E-01
 -0.17800E-01
 -0.12682E-01
 -0.12010E-01
  0.39029E-02
 -0.13433E-03
 -0.42024E-02
  0.29761E-01
  0.23712E-01
  0.22790E-01
  0.23905E-01
  0.25157E-01
  0.27140E-01
  0.28175E-01
  0.34205E-01
  0.52022E-03
 -0.42636E-03
  0.47047E-02
  0.22756E-01
  0.25346E-01
 -0.65236E-02
  0.18672E-01
  0.18994E-01
 -0.21420E-01
 -0.16288E-01
  0.19678E-01
  0.19536E-01
 -0.50077E-02
 -0.97434E-03
 -0.31963E-01
 -0.33026E-01
  0.19300E-01
  0.18435E-01
  0.17906E-01
  0.33565E-01
  0.32535E-01
  0.30812E-01
  0.16681E-01
  0.51408E-02
 -0.21891E-02
 -0.20205E-01
 -0.31084E-01
  0.65856E-02
  0.37323E-01
  0.28266E-01
  0.26917E-01
  0.20154E-01
 -0.35638E-01
  0.31519E-01
  0.17156E-01
  0.18303E-01
  0.88518E-02
  0.19372E-01
  0.16035E-01
  0.18263E-01
  0.17031E-01
  0.14181E-01
  0.15854E-01
  0.20638E-01
  0.16269E-01
  0.16252E-01
  0.18189E-01
  0.19528E-01
 -0.32402E-01
 -0.21145E-01
 -0.22545E-01
 -0.19580E-01
 -0.21869E-01
  0.13665E-01
 -0.18102E-01
  0.23711E-01
 -0.22293E-01
  0.82055E-02
  0.56433E-02
  0.95857E-02
  0.34620E-01
  0.28106E-02
  0.53391E-02
  0.21607E-01
  0.37705E-04
  0.56476E-03
  0.27292E-02
 -0.14344E-01
 -0.42457E-01
  0.28167E-01
  0.29252E-01
  0.40359E-01
  0.41554E-01
  0.40143E-01
  0.41557E-01
  0.40026E-01
 -0.55995E-02
  0.23243E-01
  0.11588E-02
  0.43859E-01
  0.18867E-01
  0.17985E-01
  0.24690E-01
  0.26318E-01
  0.18207E-01
  0.79844E-02
  0.14236E-01
  0.33441E-02
 -0.28183E-02
  0.20708E-01
  0.13371E-01
 -0.15143E-01
 -0.19383E-01
 -0.19524E-01
 -0.18779E-01
  0.12860E-01
  0.21568E-01
  0.21163E-01
  0.22124E-01
  0.29538E-01
  0.42419E-01
  0.28124E-02
  0.22886E-02
  0.20502E-02
 -0.11395E-01
  0.24291E-02
  0.22749E-02
  0.15202E-01
 -0.11115E-01
 -0.31715E-01
  0.96044E-03
 -0.43796E-02
 -0.90266E-02
 -0.55360E-01
 -0.38744E-01
 -0.39848E-01
  0.30041E-01
  0.32168E-01
  0.31555E-01
 -0.26351E-02
 -0.35249E-01
 -0.29160E-01
 -0.72922E-02
  0.19821E-02
  0.24794E-01
  0.25412E-01
  0.18850E-01
  0.34211E-01
  0.67799E-03
 -0.84389E-02
 -0.12809E-01
  0.23434E-01
  0.24174E-01
  0.24961E-01
  0.23296E-01
  0.24835E-01
  0.24120E-01
  0.26638E-01
  0.27016E-01
  0.30152E-01
  0.29733E-01
  0.29793E-01
  0.29133E-01
  0.18867E-01
  0.30304E-01
  0.30007E-01
  0.30627E-01
  0.30417E-01
  0.29430E-01
  0.30569E-01
  0.30236E-01
 -0.11144E-02
  0.11053E-02
  0.14791E-02
  0.13859E-02
  0.22788E-02
  0.21748E-02
  0.22469E-02
  0.33798E-02
  0.25961E-02
  0.19586E-02
  0.13974E-02
  0.22153E-02
  0.92222E-03
  0.27788E-01
  0.28610E-01
  0.29729E-01
  0.30043E-01
  0.30594E-01
  0.30360E-01
  0.30975E-01
 -0.59911E-02
 -0.74139E-02
  0.21423E-01
  0.28958E-01
  0.31011E-01
  0.31265E-01
 -0.13356E-01
 -0.70690E-02
 -0.81803E-02
 -0.93618E-02
  0.23969E-01
  0.29453E-01
  0.29606E-01
  0.25753E-01
  0.21031E-01
  0.60561E-02
  0.68130E-02
  0.36695E-02
  0.38097E-02
  0.77356E-03
  0.93972E-04
 -0.26087E-02
 -0.14563E-02
  0.37607E-02
  0.30989E-02
  0.26408E-01
 -0.26623E-03
 -0.92404E-03
 -0.12601E-02
 -0.25845E-02
 -0.22124E-02
 -0.99805E-03
 -0.14506E-02
 -0.30504E-02
 -0.65193E-02
  0.20895E-01
  0.22932E-01
  0.24110E-01
  0.14169E-01
  0.58613E-03
  0.17400E-03
  0.79032E-03
  0.38713E-03
  0.11908E-02
  0.64974E-03
 -0.45332E-03
  0.12523E-02
  0.17244E-02
  0.18260E-01
  0.18596E-01
  0.18939E-01
  0.19320E-01
  0.19485E-01
  0.18763E-01
  0.19370E-01
 -0.12115E-01
  0.22006E-01
 -0.44749E-01
 -0.15164E-02
  0.12971E-03
 -0.54062E-02
  0.25533E-01
  0.10622E-02
  0.15828E-02
  0.21321E-02
  0.22580E-02
  0.29250E-02
  0.31295E-01
 -0.38276E-01
  0.10918E-01
  0.34958E-01
  0.21419E-01
 -0.44757E-02
  0.15544E-02
  0.19859E-01
 -0.46915E-03
  0.13282E-01
 -0.46921E-02
  0.30381E-01
  0.21499E-02
  0.15543E-01
  0.10560E-02
  0.62326E-02
 -0.18248E-01
 -0.69226E-02
 -0.93104E-02
 -0.11116E-01
 -0.29915E-01
  0.56140E-02
 -0.18010E-02
  0.22126E-01
  0.49466E-02
  0.25207E-01
  0.28302E-01
  0.24480E-01
  0.27555E-01
  0.30898E-01
  0.29900E-01
  0.26210E-01
  0.28257E-01
  0.31554E-01
  0.19842E-01
  0.20345E-01
  0.19717E-01
  0.17311E-01
 -0.27845E-01
  0.28221E-02
  0.83671E-02
  0.30655E-01
  0.30100E-01
  0.31309E-01
  0.30730E-01
  0.31919E-01
  0.32567E-02
  0.33185E-01
  0.77908E-03
  0.68466E-03
  0.20229E-01
 -0.40728E-02
  0.21345E-01
  0.16257E-02
  0.32821E-01
 -0.15696E-01
 -0.27298E-02
 -0.19372E-02
  0.42145E-02
  0.29819E-02
  0.48285E-02
  0.19864E-02
  0.18795E-02
  0.64736E-03
  0.66834E-03
 -0.57242E-03
 -0.31353E-03
 -0.15281E-02
 -0.15371E-02
 -0.17952E-02
 -0.12376E-02
 -0.89940E-03
 -0.97436E-03
  0.29772E-01
  0.19188E-01
  0.15748E-01
  0.85783E-02
  0.11499E-01
  0.91447E-05
  0.47880E-03
 -0.18496E-01
 -0.24701E-01
 -0.19701E-01
 -0.14050E-03
  0.14665E-02
  0.43053E-02
  0.13214E-03
  0.58193E-02
  0.31357E-01
  0.30714E-03
 -0.23111E-02
  0.63378E-02
  0.14307E-01
  0.23612E-01
  0.34401E-01
  0.18416E-02
  0.21242E-01
 -0.25392E-03
  0.11594E-01
 -0.39740E-02
 -0.21834E-01
 -0.14852E-01
  0.61096E-02
 -0.32567E-02
  0.21118E-01
 -0.71931E-02
  0.18837E-01
 -0.23387E-01
 -0.37145E-01
 -0.35564E-01
  0.15951E-02
 -0.24397E-01
  0.34336E-01
  0.46771E-02
  0.17667E-01
 -0.29098E-02
  0.27785E-01
  0.32919E-01
  0.24457E-01
 -0.40308E-01
 -0.91079E-03
  0.18538E-02
  0.12313E-01
 -0.10744E-01
 -0.27582E-02
  0.15147E-01
  0.19420E-01
 -0.38704E-01
  0.50086E-03
  0.21834E-01
  0.11095E-02
  0.40317E-01
 -0.14086E-02
 -0.13487E-01
  0.22461E-01
 -0.90757E-02
  0.15728E-01
  0.42489E-02
  0.16208E-01
 -0.62716E-04
  0.18616E-01
 -0.16128E-01
 -0.15093E-01
  0.20407E-01
  0.25539E-01
 -0.70014E-02
 -0.37839E-02
  0.27962E-01
 -0.27692E-01
 -0.21106E-01
 -0.42352E-02
  0.22312E-01
 -0.39171E-01
 -0.49728E-01
 -0.10617E-02
  0.18225E-01
 -0.16594E-01
 -0.21197E-01
 -0.36502E-01
  0.30227E-01
  0.36064E-02
  0.30672E-01
  0.22218E-01
 -0.39387E-02
 -0.14414E-01
  0.21672E-01
  0.99296E-02
 -0.14704E-02
  0.23332E-01
  0.28859E-01
  0.20122E-01
  0.18229E-01
  0.29271E-01
  0.27912E-01
  0.33781E-02
  0.20513E-01
 -0.33079E-01
 -0.21561E-01
  0.20770E-01
 -0.10755E-01
  0.26683E-01
  0.16387E-01
  0.15453E-02
  0.24720E-01
  0.21535E-01
  0.30907E-02
  0.23003E-01
  0.26387E-01
 -0.22143E-02
  0.20696E-01
  0.27931E-02
  0.21146E-01
 -0.14202E-01
  0.10025E-01
  0.28681E-01
  0.17965E-01
 -0.32991E-01
  0.24636E-01
  0.30673E-01
  0.64154E-03
 -0.38115E-01
  0.31807E-01
  0.16941E-01
  0.15955E-01
  0.13100E-01
  0.30955E-01
 -0.16800E-01
  0.20668E-01
  0.24867E-01
  0.36476E-04
  0.20576E-01
  0.27473E-01
  0.15675E-01
  0.35787E-01
  0.34191E-01
  0.21355E-01
 -0.11113E-01
  0.19576E-01
  0.19307E-01
 -0.62501E-02
 -0.23488E-01