# vtk DataFile Version 2.0
Unstructured Grid UFVM-ECOMOD
ASCII
DATASET UNSTRUCTURED_GRID
 POINTS         1724  float
  0.00000E+00  0.00000E+00  0.00000E+00
  0.40000E+01  0.00000E+00  0.00000E+00
  0.40000E+01  0.20000E+01  0.00000E+00
  0.00000E+00  0.20000E+01  0.00000E+00
  0.15750E+01  0.10287E+01  0.00000E+00
  0.15677E+01  0.97091E+00  0.00000E+00
  0.15461E+01  0.91674E+00  0.00000E+00
  0.15118E+01  0.86961E+00  0.00000E+00
  0.14667E+01  0.83248E+00  0.00000E+00
  0.14138E+01  0.80767E+00  0.00000E+00
  0.13563E+01  0.79675E+00  0.00000E+00
  0.12979E+01  0.80041E+00  0.00000E+00
  0.12423E+01  0.81842E+00  0.00000E+00
  0.11929E+01  0.84963E+00  0.00000E+00
  0.11529E+01  0.89210E+00  0.00000E+00
  0.11247E+01  0.94315E+00  0.00000E+00
  0.11102E+01  0.99958E+00  0.00000E+00
  0.11102E+01  0.10578E+01  0.00000E+00
  0.11247E+01  0.11143E+01  0.00000E+00
  0.11529E+01  0.11653E+01  0.00000E+00
  0.11929E+01  0.12078E+01  0.00000E+00
  0.12423E+01  0.12390E+01  0.00000E+00
  0.12979E+01  0.12570E+01  0.00000E+00
  0.13563E+01  0.12607E+01  0.00000E+00
  0.14138E+01  0.12497E+01  0.00000E+00
  0.14667E+01  0.12249E+01  0.00000E+00
  0.15118E+01  0.11878E+01  0.00000E+00
  0.15461E+01  0.11407E+01  0.00000E+00
  0.15677E+01  0.10865E+01  0.00000E+00
  0.10000E+00  0.00000E+00  0.00000E+00
  0.20000E+00  0.00000E+00  0.00000E+00
  0.30000E+00  0.00000E+00  0.00000E+00
  0.40000E+00  0.00000E+00  0.00000E+00
  0.50000E+00  0.00000E+00  0.00000E+00
  0.60000E+00  0.00000E+00  0.00000E+00
  0.70000E+00  0.00000E+00  0.00000E+00
  0.80000E+00  0.00000E+00  0.00000E+00
  0.90000E+00  0.00000E+00  0.00000E+00
  0.10000E+01  0.00000E+00  0.00000E+00
  0.11000E+01  0.00000E+00  0.00000E+00
  0.12000E+01  0.00000E+00  0.00000E+00
  0.13000E+01  0.00000E+00  0.00000E+00
  0.14000E+01  0.00000E+00  0.00000E+00
  0.15000E+01  0.00000E+00  0.00000E+00
  0.16000E+01  0.00000E+00  0.00000E+00
  0.17000E+01  0.00000E+00  0.00000E+00
  0.18000E+01  0.00000E+00  0.00000E+00
  0.19000E+01  0.00000E+00  0.00000E+00
  0.20000E+01  0.00000E+00  0.00000E+00
  0.21000E+01  0.00000E+00  0.00000E+00
  0.22000E+01  0.00000E+00  0.00000E+00
  0.23000E+01  0.00000E+00  0.00000E+00
  0.24000E+01  0.00000E+00  0.00000E+00
  0.25000E+01  0.00000E+00  0.00000E+00
  0.26000E+01  0.00000E+00  0.00000E+00
  0.27000E+01  0.00000E+00  0.00000E+00
  0.28000E+01  0.00000E+00  0.00000E+00
  0.29000E+01  0.00000E+00  0.00000E+00
  0.30000E+01  0.00000E+00  0.00000E+00
  0.31000E+01  0.00000E+00  0.00000E+00
  0.32000E+01  0.00000E+00  0.00000E+00
  0.33000E+01  0.00000E+00  0.00000E+00
  0.34000E+01  0.00000E+00  0.00000E+00
  0.35000E+01  0.00000E+00  0.00000E+00
  0.36000E+01  0.00000E+00  0.00000E+00
  0.37000E+01  0.00000E+00  0.00000E+00
  0.38000E+01  0.00000E+00  0.00000E+00
  0.39000E+01  0.00000E+00  0.00000E+00
  0.40000E+01  0.10000E+00  0.00000E+00
  0.40000E+01  0.20000E+00  0.00000E+00
  0.40000E+01  0.30000E+00  0.00000E+00
  0.40000E+01  0.40000E+00  0.00000E+00
  0.40000E+01  0.50000E+00  0.00000E+00
  0.40000E+01  0.60000E+00  0.00000E+00
  0.40000E+01  0.70000E+00  0.00000E+00
  0.40000E+01  0.80000E+00  0.00000E+00
  0.40000E+01  0.90000E+00  0.00000E+00
  0.40000E+01  0.10000E+01  0.00000E+00
  0.40000E+01  0.11000E+01  0.00000E+00
  0.40000E+01  0.12000E+01  0.00000E+00
  0.40000E+01  0.13000E+01  0.00000E+00
  0.40000E+01  0.14000E+01  0.00000E+00
  0.40000E+01  0.15000E+01  0.00000E+00
  0.40000E+01  0.16000E+01  0.00000E+00
  0.40000E+01  0.17000E+01  0.00000E+00
  0.40000E+01  0.18000E+01  0.00000E+00
  0.40000E+01  0.19000E+01  0.00000E+00
  0.39000E+01  0.20000E+01  0.00000E+00
  0.38000E+01  0.20000E+01  0.00000E+00
  0.37000E+01  0.20000E+01  0.00000E+00
  0.36000E+01  0.20000E+01  0.00000E+00
  0.35000E+01  0.20000E+01  0.00000E+00
  0.34000E+01  0.20000E+01  0.00000E+00
  0.33000E+01  0.20000E+01  0.00000E+00
  0.32000E+01  0.20000E+01  0.00000E+00
  0.31000E+01  0.20000E+01  0.00000E+00
  0.30000E+01  0.20000E+01  0.00000E+00
  0.29000E+01  0.20000E+01  0.00000E+00
  0.28000E+01  0.20000E+01  0.00000E+00
  0.27000E+01  0.20000E+01  0.00000E+00
  0.26000E+01  0.20000E+01  0.00000E+00
  0.25000E+01  0.20000E+01  0.00000E+00
  0.24000E+01  0.20000E+01  0.00000E+00
  0.23000E+01  0.20000E+01  0.00000E+00
  0.22000E+01  0.20000E+01  0.00000E+00
  0.21000E+01  0.20000E+01  0.00000E+00
  0.20000E+01  0.20000E+01  0.00000E+00
  0.19000E+01  0.20000E+01  0.00000E+00
  0.18000E+01  0.20000E+01  0.00000E+00
  0.17000E+01  0.20000E+01  0.00000E+00
  0.16000E+01  0.20000E+01  0.00000E+00
  0.15000E+01  0.20000E+01  0.00000E+00
  0.14000E+01  0.20000E+01  0.00000E+00
  0.13000E+01  0.20000E+01  0.00000E+00
  0.12000E+01  0.20000E+01  0.00000E+00
  0.11000E+01  0.20000E+01  0.00000E+00
  0.10000E+01  0.20000E+01  0.00000E+00
  0.90000E+00  0.20000E+01  0.00000E+00
  0.80000E+00  0.20000E+01  0.00000E+00
  0.70000E+00  0.20000E+01  0.00000E+00
  0.60000E+00  0.20000E+01  0.00000E+00
  0.50000E+00  0.20000E+01  0.00000E+00
  0.40000E+00  0.20000E+01  0.00000E+00
  0.30000E+00  0.20000E+01  0.00000E+00
  0.20000E+00  0.20000E+01  0.00000E+00
  0.10000E+00  0.20000E+01  0.00000E+00
  0.00000E+00  0.19000E+01  0.00000E+00
  0.00000E+00  0.18000E+01  0.00000E+00
  0.00000E+00  0.17000E+01  0.00000E+00
  0.00000E+00  0.16000E+01  0.00000E+00
  0.00000E+00  0.15000E+01  0.00000E+00
  0.00000E+00  0.14000E+01  0.00000E+00
  0.00000E+00  0.13000E+01  0.00000E+00
  0.00000E+00  0.12000E+01  0.00000E+00
  0.00000E+00  0.11000E+01  0.00000E+00
  0.00000E+00  0.10000E+01  0.00000E+00
  0.00000E+00  0.90000E+00  0.00000E+00
  0.00000E+00  0.80000E+00  0.00000E+00
  0.00000E+00  0.70000E+00  0.00000E+00
  0.00000E+00  0.60000E+00  0.00000E+00
  0.00000E+00  0.50000E+00  0.00000E+00
  0.00000E+00  0.40000E+00  0.00000E+00
  0.00000E+00  0.30000E+00  0.00000E+00
  0.00000E+00  0.20000E+00  0.00000E+00
  0.00000E+00  0.10000E+00  0.00000E+00
  0.15713E+01  0.99981E+00  0.00000E+00
  0.15569E+01  0.94382E+00  0.00000E+00
  0.15290E+01  0.89318E+00  0.00000E+00
  0.14892E+01  0.85104E+00  0.00000E+00
  0.14402E+01  0.82007E+00  0.00000E+00
  0.13850E+01  0.80221E+00  0.00000E+00
  0.13271E+01  0.79858E+00  0.00000E+00
  0.12701E+01  0.80941E+00  0.00000E+00
  0.12176E+01  0.83402E+00  0.00000E+00
  0.11729E+01  0.87086E+00  0.00000E+00
  0.11388E+01  0.91762E+00  0.00000E+00
  0.11175E+01  0.97136E+00  0.00000E+00
  0.11102E+01  0.10287E+01  0.00000E+00
  0.11175E+01  0.10860E+01  0.00000E+00
  0.11388E+01  0.11398E+01  0.00000E+00
  0.11729E+01  0.11865E+01  0.00000E+00
  0.12176E+01  0.12234E+01  0.00000E+00
  0.12701E+01  0.12480E+01  0.00000E+00
  0.13271E+01  0.12588E+01  0.00000E+00
  0.13850E+01  0.12552E+01  0.00000E+00
  0.14402E+01  0.12373E+01  0.00000E+00
  0.14892E+01  0.12064E+01  0.00000E+00
  0.15290E+01  0.11642E+01  0.00000E+00
  0.15569E+01  0.11136E+01  0.00000E+00
  0.15713E+01  0.10576E+01  0.00000E+00
  0.15994E+01  0.10133E+01  0.00000E+00
  0.15863E+01  0.11089E+01  0.00000E+00
  0.25478E+01  0.10053E+00  0.00000E+00
  0.25434E+01  0.19142E+01  0.00000E+00
  0.11238E+01  0.89266E+00  0.00000E+00
  0.11061E+01  0.11423E+01  0.00000E+00
  0.15575E+01  0.89126E+00  0.00000E+00
  0.10894E+01  0.97917E+00  0.00000E+00
  0.15393E+01  0.11910E+01  0.00000E+00
  0.11627E+01  0.12175E+01  0.00000E+00
  0.14962E+01  0.82262E+00  0.00000E+00
  0.29512E+01  0.95010E-01  0.00000E+00
  0.29494E+01  0.19117E+01  0.00000E+00
  0.39186E+01  0.10466E+01  0.00000E+00
  0.11913E+01  0.82197E+00  0.00000E+00
  0.12788E+01  0.78594E+00  0.00000E+00
  0.21500E+01  0.86600E-01  0.00000E+00
  0.21472E+01  0.19005E+01  0.00000E+00
  0.14041E+01  0.78007E+00  0.00000E+00
  0.14641E+01  0.12550E+01  0.00000E+00
  0.13764E+01  0.12826E+01  0.00000E+00
  0.99450E-01  0.63780E+00  0.00000E+00
  0.92450E-01  0.13422E+01  0.00000E+00
  0.12473E+01  0.12677E+01  0.00000E+00
  0.65677E+00  0.19154E+01  0.00000E+00
  0.86110E-01  0.10467E+01  0.00000E+00
  0.75000E+00  0.86600E-01  0.00000E+00
  0.33379E+01  0.88030E-01  0.00000E+00
  0.33490E+01  0.19201E+01  0.00000E+00
  0.18500E+01  0.86600E-01  0.00000E+00
  0.18441E+01  0.19006E+01  0.00000E+00
  0.38922E+01  0.64055E+00  0.00000E+00
  0.39154E+01  0.13500E+01  0.00000E+00
  0.10564E+01  0.85180E-01  0.00000E+00
  0.94817E+00  0.19249E+01  0.00000E+00
  0.15421E+01  0.85450E-01  0.00000E+00
  0.15479E+01  0.19161E+01  0.00000E+00
  0.12386E+01  0.19130E+01  0.00000E+00
  0.45294E+00  0.85030E-01  0.00000E+00
  0.86890E-01  0.16531E+01  0.00000E+00
  0.36495E+01  0.78620E-01  0.00000E+00
  0.36510E+01  0.19107E+01  0.00000E+00
  0.10846E+01  0.10423E+01  0.00000E+00
  0.15860E+01  0.94842E+00  0.00000E+00
  0.13392E+01  0.77093E+00  0.00000E+00
  0.13108E+01  0.12864E+01  0.00000E+00
  0.87300E-01  0.35008E+00  0.00000E+00
  0.34468E+00  0.19176E+01  0.00000E+00
  0.39135E+01  0.16499E+01  0.00000E+00
  0.39252E+01  0.34254E+00  0.00000E+00
  0.13680E+01  0.88360E-01  0.00000E+00
  0.88350E-01  0.84594E+00  0.00000E+00
  0.23513E+01  0.77830E-01  0.00000E+00
  0.23488E+01  0.19154E+01  0.00000E+00
  0.27481E+01  0.80910E-01  0.00000E+00
  0.31480E+01  0.84140E-01  0.00000E+00
  0.31513E+01  0.19149E+01  0.00000E+00
  0.27502E+01  0.19198E+01  0.00000E+00
  0.39134E+01  0.85000E+00  0.00000E+00
  0.25071E+00  0.86200E-01  0.00000E+00
  0.91130E-01  0.18412E+01  0.00000E+00
  0.38461E+01  0.84360E-01  0.00000E+00
  0.38408E+01  0.19092E+01  0.00000E+00
  0.97440E-01  0.15849E+00  0.00000E+00
  0.15988E+01  0.10458E+01  0.00000E+00
  0.16261E+01  0.10305E+01  0.00000E+00
  0.16281E+01  0.99836E+00  0.00000E+00
  0.16554E+01  0.10148E+01  0.00000E+00
  0.16578E+01  0.98164E+00  0.00000E+00
  0.16863E+01  0.99914E+00  0.00000E+00
  0.16884E+01  0.96239E+00  0.00000E+00
  0.17222E+01  0.98417E+00  0.00000E+00
  0.17231E+01  0.93952E+00  0.00000E+00
  0.17605E+01  0.96435E+00  0.00000E+00
  0.17576E+01  0.10098E+01  0.00000E+00
  0.17991E+01  0.98970E+00  0.00000E+00
  0.17625E+01  0.91931E+00  0.00000E+00
[...]
 POINT_DATA         1724
  
 SCALARS WL      float 1
 LOOKUP_TABLE default
  0.21731E-01
  0.38038E-02
  0.51396E-03
  0.34110E-01
 -0.38603E-01
 -0.31977E-01
 -0.19994E-01
 -0.69528E-02
 -0.20342E-02
 -0.75514E-03
  0.14983E-02
 -0.50437E-02
 -0.74605E-03
  0.85256E-02
  0.24818E-01
  0.36525E-01
  0.43598E-01
  0.44021E-01
  0.37715E-01
  0.25949E-01
  0.75272E-02
 -0.14274E-01
 -0.37794E-01
 -0.60633E-01
 -0.65932E-01
 -0.52774E-01
 -0.48239E-01
 -0.45061E-01
 -0.41449E-01
  0.21482E-01
  0.21059E-01
  0.20488E-01
  0.19751E-01
  0.18789E-01
  0.17565E-01
  0.16084E-01
  0.14375E-01
  0.12300E-01
  0.99880E-02
  0.80331E-02
  0.62718E-02
  0.51118E-02
  0.51299E-02
  0.55791E-02
  0.64110E-02
  0.72205E-02
  0.78436E-02
  0.84934E-02
  0.89711E-02
  0.94800E-02
  0.96995E-02
  0.97581E-02
  0.91683E-02
  0.84447E-02
  0.75518E-02
  0.69494E-02
  0.67181E-02
  0.68203E-02
  0.76498E-02
  0.88366E-02
  0.10175E-01
  0.11652E-01
  0.12572E-01
  0.13119E-01
  0.12653E-01
  0.11288E-01
  0.94487E-02
  0.64580E-02
  0.00000E+00
  0.00000E+00
  0.00000E+00
  0.00000E+00
  0.00000E+00
  0.00000E+00
  0.00000E+00
  0.00000E+00
  0.00000E+00
  0.00000E+00
  0.00000E+00
  0.00000E+00
  0.00000E+00
  0.00000E+00
  0.00000E+00
  0.00000E+00
  0.00000E+00
  0.00000E+00
  0.00000E+00
  0.92693E-03
  0.23100E-02
  0.48051E-02
  0.74493E-02
  0.98744E-02
  0.12010E-01
  0.12915E-01
  0.12659E-01
  0.11267E-01
  0.92805E-02
  0.78823E-02
  0.79565E-02
  0.91260E-02
  0.10867E-01
  0.12577E-01
  0.13849E-01
  0.14529E-01
  0.14663E-01
  0.14358E-01
  0.13615E-01
  0.12664E-01
  0.11600E-01
  0.10534E-01
  0.99101E-02
  0.10105E-01
  0.11211E-01
  0.13159E-01
  0.15661E-01
  0.18403E-01
  0.21163E-01
  0.23806E-01
  0.26154E-01
  0.28253E-01
  0.30092E-01
  0.31753E-01
  0.33144E-01
  0.34101E-01
  0.34545E-01
  0.34475E-01
  0.33879E-01
  0.33344E-01
  0.32635E-01
  0.31680E-01
  0.30812E-01
  0.29676E-01
  0.28705E-01
  0.27775E-01
  0.26963E-01
  0.26217E-01
  0.25521E-01
  0.24874E-01
  0.24216E-01
  0.23642E-01
  0.23117E-01
  0.22660E-01
  0.22287E-01
  0.22006E-01
  0.21822E-01
 -0.36263E-01
 -0.26529E-01
 -0.12211E-01
 -0.31141E-02
 -0.21341E-02
  0.11657E-02
 -0.18404E-02
 -0.58879E-02
  0.19124E-02
  0.17175E-01
  0.31379E-01
  0.41331E-01
  0.44560E-01
  0.42132E-01
  0.32852E-01
  0.17096E-01
 -0.23447E-02
 -0.25302E-01
 -0.50540E-01
 -0.65701E-01
 -0.60661E-01
 -0.49174E-01
 -0.47010E-01
 -0.43039E-01
 -0.40016E-01
 -0.36093E-01
 -0.41475E-01
  0.82126E-02
  0.11953E-01
  0.29570E-01
  0.35330E-01
 -0.15329E-01
  0.42323E-01
 -0.47390E-01
  0.15583E-01
 -0.33865E-02
  0.80057E-02
  0.82696E-02
 -0.53931E-02
  0.73324E-02
 -0.44174E-02
  0.93187E-02
  0.14604E-01
  0.30041E-03
 -0.55102E-01
 -0.58579E-01
  0.23751E-01
  0.29422E-01
 -0.15265E-01
  0.29175E-01
  0.26632E-01
  0.15341E-01
  0.12390E-01
  0.12560E-01
  0.79190E-02
  0.11740E-01
 -0.11978E-01
  0.37529E-02
  0.90792E-02
  0.22558E-01
  0.60426E-02
  0.95434E-02
  0.14482E-01
  0.19341E-01
  0.32586E-01
  0.11942E-01
  0.62772E-02
  0.44156E-01
 -0.27899E-01
  0.58278E-03
 -0.38542E-01
  0.22292E-01
  0.33692E-01
  0.27232E-02
  0.25939E-02
  0.53355E-02
  0.25159E-01
  0.94313E-02
  0.14346E-01
  0.71348E-02
  0.10033E-01
  0.12164E-01
  0.82676E-02
 -0.14214E-01
  0.20854E-01
  0.33987E-01
  0.81143E-02
  0.17869E-02
  0.21672E-01
 -0.38218E-01
 -0.36158E-01
 -0.34482E-01
 -0.35785E-01
 -0.33705E-01
 -0.35624E-01
 -0.32642E-01
 -0.34557E-01
 -0.30275E-01
 -0.31805E-01
 -0.34868E-01
 -0.30999E-01
 -0.26682E-01
 -0.32001E-01
 -0.27344E-01
 -0.25806E-01
 -0.21761E-01
 -0.18335E-01
 -0.15671E-01
 -0.19488E-01
 -0.14712E-01
 -0.19762E-01
 -0.16968E-01
 -0.22692E-01
 -0.21430E-01
 -0.27046E-01
 -0.25215E-01
 -0.10039E-01
 -0.29609E-01
 -0.24902E-01
 -0.19971E-01
 -0.17078E-01
 -0.28734E-01
 -0.11474E-01
 -0.82340E-02
 -0.10005E-01
 -0.32477E-02
 -0.22618E-02
  0.12891E-02
  0.62972E-03
  0.24692E-02
  0.46721E-02
  0.38787E-02
  0.12404E-02
  0.42510E-03
  0.50121E-02
  0.48259E-04
 -0.58524E-02
 -0.67953E-02
  0.96130E-03
 -0.49160E-02
  0.31850E-02
 -0.13761E-02
 -0.92632E-02
 -0.44874E-02
  0.16605E-02
 -0.10437E-01
 -0.50208E-02
 -0.76734E-02
 -0.22228E-01
 -0.34884E-02
 -0.30655E-02
 -0.78726E-02
 -0.28936E-01
 -0.25822E-01
 -0.22794E-01
 -0.19425E-01
 -0.13803E-01
 -0.10771E-01
 -0.94557E-03
 -0.20803E-02
  0.12336E-02
 -0.49084E-02
 -0.12129E-01
 -0.55669E-02
 -0.40376E-02
 -0.49803E-03
  0.23169E-02
  0.16878E-02
  0.45180E-02
  0.34495E-02
  0.56025E-02
 -0.23348E-01
  0.51672E-02
  0.65384E-02
  0.55357E-02
  0.62353E-02
  0.75555E-02
  0.65263E-02
  0.77288E-02
  0.62503E-02
  0.59994E-02
  0.58446E-02
 -0.49497E-02
  0.10833E-02
  0.23920E-02
  0.56901E-02
  0.73169E-02
  0.25335E-02
 -0.18978E-01
  0.61155E-02
  0.62297E-02
 -0.14170E-01
  0.54672E-02
  0.39581E-02
  0.68694E-02
  0.72638E-02
  0.89840E-02
  0.65903E-02
  0.70105E-02
  0.64300E-02
  0.76229E-02
  0.86353E-02
  0.10277E-01
  0.48047E-02
  0.69484E-02
  0.84374E-02
  0.86825E-02
  0.96568E-02
  0.94299E-02
  0.10522E-01
  0.10709E-01
  0.11785E-01
  0.12051E-01
  0.13259E-01
  0.13800E-01
  0.15137E-01
  0.14085E-01
  0.15947E-01
  0.17274E-01
  0.17935E-01
  0.19602E-01
  0.19890E-01
  0.21819E-01
  0.21680E-01
  0.23732E-01
  0.23161E-01
  0.25275E-01
  0.24406E-01
  0.26426E-01
  0.25365E-01
  0.27154E-01
  0.23669E-01
  0.26036E-01
  0.27604E-01
  0.26467E-01
  0.27862E-01
  0.29126E-01
  0.29130E-01
  0.30450E-01
  0.30222E-01
  0.31513E-01
  0.31060E-01
  0.32212E-01
  0.31618E-01
  0.32545E-01
  0.31887E-01
  0.32502E-01
  0.31872E-01
  0.32095E-01
  0.31607E-01
  0.31387E-01
  0.31413E-01
  0.29888E-01
  0.31130E-01
  0.30467E-01
  0.19921E-01
  0.26845E-01
  0.25488E-01
  0.30496E-01
  0.31106E-01
  0.29484E-01
  0.29266E-01
  0.28010E-01
  0.27480E-01
  0.26101E-01
  0.25075E-01
  0.23724E-01
  0.22018E-01
  0.25894E-01
  0.24660E-01
  0.14649E-01
  0.32090E-01
  0.30661E-01
  0.31249E-01
  0.29174E-01
  0.27580E-01
  0.33392E-01
  0.20959E-01
  0.18443E-01
  0.26933E-01
  0.30982E-01
  0.31518E-01
  0.25074E-01
  0.24054E-01
  0.10033E-01
  0.17869E-01
  0.14748E-01
  0.23382E-01
  0.23916E-01
  0.26198E-01
  0.31434E-01
  0.31663E-01
  0.31251E-01
 -0.37012E-01
  0.23486E-01
  0.23089E-01
  0.22351E-01
  0.22166E-01
  0.21299E-01
  0.62744E-02
  0.31438E-01
  0.21313E-01
  0.95269E-02
 -0.87185E-02
 -0.13782E-01
  0.18746E-01
  0.14720E-01
  0.10376E-01
  0.11155E-01
  0.62385E-02
  0.78578E-02
  0.28832E-02
  0.52514E-02
  0.65711E-03
 -0.28603E-02
 -0.57019E-02
 -0.42728E-03
 -0.50195E-02
 -0.11465E-01
 -0.95665E-02
 -0.35305E-02
 -0.67780E-02
 -0.14496E-02
 -0.31272E-02
 -0.90986E-02
 -0.42123E-02
 -0.10291E-01
 -0.48846E-02
  0.19590E-03
  0.19765E-03
  0.42694E-02
  0.49159E-02
  0.78409E-02
  0.87334E-02
  0.10852E-01
  0.11979E-01
  0.97110E-02
  0.12828E-01
  0.14225E-01
  0.14998E-01
  0.15629E-01
  0.16275E-01
  0.13478E-01
  0.95200E-03
  0.10299E-01
  0.10405E-01
  0.12242E-01
  0.16312E-01
  0.16538E-01
  0.24508E-01
  0.80786E-02
  0.20395E-01
  0.20276E-01
  0.94914E-02
  0.16024E-01
  0.15569E-01
  0.15530E-01
  0.13547E-01
  0.13651E-01
  0.10745E-01
 -0.16636E-01
 -0.17331E-01
  0.10946E-01
  0.73136E-02
  0.54274E-03
  0.24441E-02
 -0.21740E-02
  0.30584E-01
  0.78023E-02
  0.71996E-02
 -0.17221E-01
 -0.30136E-02
  0.95552E-02
  0.12764E-01
  0.13743E-01
  0.15579E-01
  0.15897E-01
  0.16600E-01
  0.16434E-01
  0.15548E-01
  0.15812E-01
  0.14645E-01
  0.16210E-01
  0.14822E-01
  0.13457E-01
  0.12290E-01
  0.10831E-01
  0.87291E-02
  0.66645E-02
  0.92064E-02
  0.42138E-02
  0.85423E-03
  0.76649E-02
  0.19457E-02
  0.65625E-02
  0.15710E-02
  0.35088E-02
 -0.34447E-02
  0.13093E-01
 -0.35982E-02
  0.43910E-03
  0.22093E-01
  0.21395E-01
 -0.13471E-01
  0.14085E-02
  0.11709E-01
  0.12310E-01
  0.20240E-01
  0.11476E-01
  0.64610E-02
 -0.14137E-01
 -0.17965E-01
  0.50284E-02
  0.53388E-02
  0.13800E-01
  0.41227E-02
  0.31229E-01
  0.31994E-01
  0.77166E-02
  0.84361E-02
  0.25456E-02
  0.90727E-02
 -0.79170E-04
 -0.63509E-02
 -0.24663E-01
 -0.24996E-01
 -0.75519E-02
  0.31451E-01
  0.30772E-01
 -0.29652E-02
 -0.13298E-01
  0.61715E-03
 -0.57725E-02
 -0.59136E-02
 -0.10661E-03
 -0.22281E-01
 -0.26874E-01
  0.10468E-02
  0.88375E-02
  0.89521E-02
 -0.36773E-02
  0.27519E-02
  0.19349E-01
  0.19023E-01
  0.90857E-02
  0.53599E-02
  0.14843E-01
  0.15073E-01
 -0.87307E-02
  0.93120E-03
 -0.42503E-02
  0.29262E-02
 -0.17489E-01
 -0.72318E-02
  0.58875E-02
  0.14867E-01
 -0.10154E-01
 -0.74710E-02
  0.10335E-01
  0.22093E-01
  0.10244E-01
 -0.27029E-01
  0.50342E-02
  0.21533E-01
  0.45312E-02
  0.30667E-01
  0.29975E-01
  0.29939E-01
  0.29112E-01
  0.29134E-01
  0.29112E-01
  0.28225E-01
  0.57041E-02
  0.30113E-01
 -0.18006E-02
  0.24421E-02
  0.14633E-01
  0.79695E-02
  0.74643E-02
  0.36250E-02
  0.78825E-02
 -0.21002E-01
  0.31950E-01
  0.32593E-01
  0.19625E-01
  0.17886E-01
  0.17589E-01
  0.22755E-01
 -0.32817E-01
 -0.32112E-01
  0.75999E-02
 -0.12049E-01
 -0.18552E-01
 -0.19660E-02
  0.79294E-03
 -0.27346E-02
 -0.46708E-04
 -0.21881E-02
  0.74827E-03
  0.95366E-03
  0.42076E-03
  0.18873E-01
  0.17296E-01
  0.16055E-01
  0.15568E-01
  0.14350E-01
  0.13751E-01
  0.58968E-02
 -0.26180E-01
  0.61100E-02
  0.30924E-01
  0.31707E-01
  0.12921E-01
 -0.17602E-01
  0.50939E-02
  0.91851E-02
  0.40967E-02
  0.66226E-02
  0.79265E-02
  0.79341E-02
  0.91514E-02
 -0.34879E-02
  0.14038E-01
  0.67711E-02
 -0.30631E-01
 -0.12536E-01
  0.98503E-02
  0.28224E-01
  0.27325E-01
  0.27412E-01
  0.26564E-01
 -0.11296E-01
  0.93782E-02
 -0.39689E-01
 -0.38889E-01
 -0.30264E-01
 -0.35982E-01
  0.22685E-01
  0.23367E-01
  0.70586E-02
 -0.18878E-01
 -0.23694E-01
  0.10136E-01
  0.59547E-02
  0.44318E-02
  0.61026E-02
  0.57859E-02
  0.68146E-02
  0.66472E-02
 -0.40476E-01
  0.31941E-01
  0.29348E-01
  0.28686E-01
  0.77590E-02
  0.81298E-02
  0.22711E-01
  0.95383E-02
  0.75849E-02
  0.95495E-02
 -0.56317E-02
 -0.51203E-02
  0.56215E-02
  0.60483E-02
  0.12571E-01
  0.13430E-01
 -0.25387E-01
 -0.34635E-01
 -0.35723E-01
 -0.21535E-01
 -0.13983E-01
 -0.81554E-02
  0.13981E-01
  0.11496E-01
  0.12719E-01
 -0.94149E-03
  0.66472E-02
  0.14062E-02
  0.31112E-01
  0.31998E-01
  0.89702E-02
  0.30508E-02
  0.34091E-02
  0.36204E-02
  0.98008E-02
  0.32682E-01
  0.33186E-01
  0.31793E-01
  0.11026E-01
  0.10856E-01
  0.11982E-01
  0.29997E-01
 -0.13167E-01
 -0.90741E-02
 -0.15731E-01
  0.30004E-01
  0.27758E-01
  0.27004E-01
  0.25827E-01
  0.22941E-02
 -0.38834E-03
 -0.45923E-02
  0.10757E-01
  0.72640E-02
  0.26665E-02
  0.66291E-02
  0.21214E-02
 -0.33292E-01
 -0.40347E-01
 -0.38915E-01
  0.26401E-01
  0.25705E-01
  0.25984E-01
  0.25191E-01
  0.11929E-01
  0.20797E-01
  0.21067E-01
  0.43576E-02
  0.25040E-01
  0.23744E-01
  0.26433E-01
 -0.10617E-01
 -0.10011E-01
  0.77131E-02
  0.76616E-02
  0.65276E-02
  0.76930E-02
  0.17092E-01
  0.17436E-01
  0.19686E-01
  0.17133E-01
  0.19355E-01
 -0.81782E-02
  0.29626E-01
  0.16969E-01
  0.14626E-01
 -0.41537E-01
 -0.43250E-01
  0.19577E-02
  0.38410E-02
  0.31296E-01
  0.48986E-02
  0.13385E-01
 -0.25961E-01
 -0.29607E-01
 -0.42804E-01
 -0.31833E-01
 -0.21536E-01
 -0.21353E-01
 -0.81202E-02
 -0.26784E-02
  0.16150E-01
  0.14899E-01
  0.14731E-01
  0.12862E-01
  0.12544E-01
  0.10559E-01
  0.10894E-01
  0.65153E-02
  0.78785E-02
  0.86150E-02
  0.87664E-02
  0.24870E-01
  0.24417E-01
  0.59953E-02
  0.63734E-02
  0.64240E-02
 -0.73964E-02
  0.19341E-01
  0.15988E-02
 -0.57417E-02
  0.20323E-01
  0.70040E-02
  0.57794E-02
  0.94280E-02
  0.66532E-02
 -0.22014E-01
 -0.37417E-04
  0.31074E-02
 -0.40198E-01
 -0.31160E-01
 -0.19034E-01
 -0.11747E-01
 -0.83783E-02
 -0.16485E-01
 -0.35046E-02
 -0.75085E-02
  0.23753E-02
  0.31359E-03
  0.86834E-02
  0.81870E-02
  0.15170E-01
  0.14294E-01
  0.19463E-01
  0.21238E-01
  0.23905E-01
  0.26162E-01
  0.27452E-01
  0.29890E-01
  0.29144E-01
  0.32763E-01
  0.32253E-01
  0.34667E-01
  0.33579E-01
  0.35337E-01
  0.36831E-01
  0.36851E-01
  0.38695E-01
  0.37852E-01
  0.39807E-01
  0.38249E-01
  0.36580E-01
  0.36450E-01
  0.38025E-01
  0.35689E-01
  0.36466E-01
  0.34414E-01
  0.34670E-01
  0.36679E-01
  0.34306E-01
  0.32450E-01
  0.31493E-01
  0.36277E-01
  0.35121E-01
  0.30023E-01
  0.28527E-01
  0.29617E-01
  0.26107E-01
  0.25541E-01
  0.22806E-01
  0.38666E-01
  0.31769E-01
  0.34037E-01
  0.20590E-01
  0.18598E-01
  0.20608E-01
  0.17173E-01
  0.14159E-01
  0.13850E-01
  0.10262E-01
  0.11080E-01
  0.76180E-02
  0.91812E-02
  0.64571E-02
  0.81575E-02
  0.18104E-01
  0.32630E-01
  0.30935E-01
  0.23444E-01
  0.33781E-01
  0.32349E-01
  0.38680E-01
  0.35170E-01
  0.27730E-01
  0.92392E-02
  0.21688E-01
  0.21273E-01
 -0.65613E-02
  0.51944E-02
 -0.39712E-01
  0.40146E-03
 -0.42181E-02
  0.90427E-02
 -0.45353E-01
  0.69317E-02
  0.70344E-02
  0.10227E-01
  0.12035E-01
  0.69474E-02
  0.27952E-02
  0.13228E-02
 -0.84717E-03
  0.11661E-01
 -0.50466E-03
  0.64298E-02
  0.37862E-01
  0.10405E-01
  0.15031E-01
  0.55316E-02
  0.26817E-02
  0.15880E-01
  0.38358E-02
  0.85379E-04
 -0.27316E-02
 -0.38599E-01
  0.48307E-02
  0.34410E-01
  0.40347E-01
 -0.20071E-02
 -0.50434E-01
 -0.32867E-02
  0.23516E-01
  0.21530E-01
  0.67442E-02
  0.32215E-01
  0.90416E-02
  0.95248E-02
  0.11241E-01
 -0.21285E-01
 -0.23256E-01
 -0.23038E-01
  0.24445E-01
  0.28769E-01
 -0.50581E-01
  0.11632E-01
  0.32348E-01
 -0.13601E-01
 -0.17759E-01
 -0.14291E-02
  0.75003E-02
  0.34860E-02
  0.74708E-02
  0.27490E-01
  0.23217E-01
  0.22665E-01
  0.11381E-01
  0.11644E-01
  0.12627E-01
  0.12605E-01
  0.34039E-01
  0.12565E-01
  0.12006E-01
 -0.16805E-02
  0.25700E-01
  0.28050E-01
 -0.39366E-02
  0.86955E-02
  0.72841E-02
 -0.60283E-02
  0.35313E-02
  0.90432E-02
  0.91554E-02
 -0.20393E-01
 -0.17519E-01
 -0.45747E-01
 -0.41701E-01
  0.11969E-01
  0.11646E-01
  0.12714E-01
  0.32101E-01
  0.30564E-01
  0.32756E-01
  0.15872E-01
  0.11464E-01
  0.34310E-02
 -0.18219E-01
 -0.23865E-01
  0.12693E-01
  0.38407E-01
  0.32640E-01
  0.31454E-01
  0.92299E-02
 -0.52624E-01
  0.33075E-01
  0.11356E-01
  0.14679E-01
  0.13036E-01
  0.72769E-02
  0.15488E-01
  0.61530E-02
  0.64745E-02
  0.71422E-02
  0.19644E-01
  0.78550E-02
  0.11335E-01
  0.48274E-02
  0.27696E-02
  0.14379E-01
 -0.48299E-01
 -0.18318E-01
 -0.20631E-01
 -0.16026E-01
 -0.21690E-01
  0.57921E-02
 -0.48713E-02
  0.26827E-01
 -0.15089E-01
  0.93324E-02
  0.85534E-02
  0.10624E-01
  0.35937E-01
  0.54487E-02
  0.13351E-01
  0.24275E-01
 -0.76163E-02
 -0.12673E-01
  0.11152E-01
  0.11999E-02
 -0.39531E-01
  0.30677E-01
  0.31407E-01
  0.40865E-01
  0.41752E-01
  0.40087E-01
  0.41496E-01
  0.39767E-01
  0.18175E-03
  0.23189E-01
  0.59638E-02
  0.43932E-01
  0.58803E-02
  0.62589E-02
  0.21664E-01
  0.23823E-01
  0.14685E-02
 -0.20023E-02
  0.57775E-02
 -0.36222E-03
 -0.88183E-02
  0.85770E-02
  0.16664E-01
 -0.30365E-02
 -0.72331E-02
 -0.81067E-02
 -0.56454E-02
  0.17122E-01
  0.11040E-01
  0.96042E-02
  0.88488E-02
  0.28596E-01
  0.43020E-01
  0.65940E-02
  0.74585E-02
  0.72304E-02
  0.19705E-02
  0.54429E-02
  0.61280E-02
  0.14721E-01
 -0.17763E-02
 -0.25454E-01
  0.29937E-02
  0.24019E-02
 -0.30580E-02
 -0.48971E-01
 -0.32089E-01
 -0.38526E-01
  0.31841E-01
  0.31419E-01
  0.32884E-01
  0.46918E-02
 -0.33115E-01
 -0.29182E-01
 -0.17957E-02
 -0.17939E-01
  0.23858E-01
  0.24416E-01
  0.16188E-01
  0.33240E-01
 -0.11908E-01
 -0.16061E-01
 -0.15911E-01
  0.20233E-01
  0.20318E-01
  0.21631E-01
  0.18828E-01
  0.20530E-01
  0.21399E-01
  0.23362E-01
  0.24132E-01
  0.30739E-01
  0.31161E-01
  0.31274E-01
  0.31335E-01
  0.10682E-01
  0.29189E-01
  0.28296E-01
  0.30186E-01
  0.30755E-01
  0.27291E-01
  0.29445E-01
  0.28517E-01
 -0.13209E-01
  0.14729E-01
  0.14838E-01
  0.14159E-01
  0.14985E-01
  0.15262E-01
  0.14031E-01
  0.15806E-01
  0.15467E-01
  0.15049E-01
  0.13080E-01
  0.12567E-01
  0.53018E-02
  0.25864E-01
  0.26294E-01
  0.27248E-01
  0.27462E-01
  0.28237E-01
  0.28233E-01
  0.28503E-01
 -0.74868E-02
 -0.10992E-01
  0.55649E-02
  0.26128E-01
  0.28471E-01
  0.28950E-01
 -0.20056E-01
 -0.16241E-01
  0.17315E-02
 -0.44619E-02
  0.23096E-01
  0.27307E-01
  0.27398E-01
  0.21992E-01
  0.88439E-02
  0.11862E-01
  0.12175E-01
  0.10069E-01
  0.97098E-02
  0.76987E-02
  0.64983E-02
  0.47959E-02
  0.65737E-02
  0.93240E-02
  0.10194E-01
  0.30074E-01
  0.97707E-02
  0.83169E-02
  0.91120E-02
  0.70750E-02
  0.81278E-02
  0.10107E-01
  0.93524E-02
  0.67291E-02
 -0.16235E-01
  0.25026E-01
  0.27254E-01
  0.28475E-01
  0.79496E-02
  0.13005E-01
  0.12102E-01
  0.13266E-01
  0.12211E-01
  0.13575E-01
  0.12218E-01
  0.10401E-01
  0.14195E-01
  0.13842E-01
  0.16944E-01
  0.16549E-01
  0.17877E-01
  0.16424E-01
  0.17708E-01
  0.18263E-01
  0.19019E-01
 -0.25405E-02
  0.24389E-01
 -0.43603E-01
  0.82723E-03
  0.86755E-02
 -0.12202E-01
  0.74493E-02
  0.10060E-01
  0.89002E-02
  0.84463E-02
  0.10737E-01
  0.97840E-02
  0.29427E-01
 -0.30353E-01
  0.14738E-02
  0.34368E-01
  0.50232E-02
  0.48759E-02
  0.14930E-01
  0.18950E-01
  0.10619E-01
  0.13419E-01
  0.42768E-02
  0.72595E-02
  0.77975E-02
  0.55736E-02
  0.13949E-01
  0.11241E-01
 -0.15011E-01
 -0.66356E-02
 -0.33087E-02
 -0.31865E-02
 -0.33751E-01
  0.98599E-02
  0.59796E-02
  0.12875E-01
  0.15490E-01
  0.11906E-01
  0.12836E-01
  0.12341E-01
  0.12909E-01
  0.12316E-01
  0.12470E-01
  0.13430E-01
  0.12800E-01
  0.10880E-01
  0.20200E-01
  0.20727E-01
  0.11135E-01
  0.83424E-02
 -0.26896E-01
  0.94482E-02
  0.10958E-01
  0.34318E-01
  0.33923E-01
  0.34225E-01
  0.33714E-01
  0.33690E-01
  0.10137E-01
  0.88179E-02
  0.13388E-01
  0.85864E-02
  0.91062E-02
  0.29938E-02
  0.21951E-01
  0.12885E-01
  0.11146E-01
 -0.29821E-02
 -0.10025E-01
 -0.14146E-01
  0.17531E-02
  0.42231E-02
  0.58782E-02
  0.36535E-02
  0.50228E-02
  0.38132E-02
  0.59769E-02
  0.49752E-02
  0.26657E-02
  0.41353E-02
  0.66543E-02
  0.87403E-02
  0.89483E-02
  0.10760E-01
  0.10894E-01
  0.12907E-01
  0.10285E-01
  0.87933E-02
  0.56103E-02
  0.62270E-02
 -0.16925E-01
  0.18149E-02
  0.35944E-02
 -0.19613E-01
 -0.13183E-01
  0.97031E-02
  0.13772E-03
  0.89474E-02
  0.69849E-02
 -0.65088E-02
  0.32947E-01
 -0.51664E-02
 -0.19929E-01
 -0.28285E-02
  0.61146E-02
  0.18768E-01
  0.35250E-01
  0.12506E-01
  0.97024E-02
 -0.11154E-01
  0.14887E-01
  0.57553E-02
 -0.21654E-01
 -0.10808E-02
  0.40496E-02
  0.10426E-01
  0.10570E-01
  0.24402E-02
  0.12249E-01
 -0.18321E-01
 -0.41596E-01
 -0.44253E-01
  0.62425E-02
 -0.14734E-02
  0.33666E-01
  0.15964E-01
  0.77868E-02
 -0.26921E-02
  0.25493E-01
  0.33956E-01
  0.22868E-01
 -0.37951E-01
  0.10694E-01
  0.13259E-01
  0.13996E-01
 -0.13348E-01
  0.36840E-02
  0.16119E-01
  0.59474E-02
 -0.36997E-01
  0.55820E-02
  0.15797E-01
  0.35158E-02
  0.41055E-01
  0.11436E-01
 -0.24909E-01
  0.22698E-01
 -0.14814E-02
  0.14360E-01
  0.13350E-01
  0.15559E-01
  0.42834E-02
  0.99615E-02
 -0.94410E-02
  0.32953E-02
  0.86076E-02
  0.30024E-01
  0.64156E-03
  0.21579E-02
  0.32525E-01
 -0.23471E-01
 -0.25559E-01
  0.18182E-02
  0.22142E-01
 -0.61390E-01
 -0.60936E-01
  0.56460E-02
  0.22145E-01
 -0.11204E-01
 -0.22513E-01
 -0.45705E-01
  0.97659E-02
  0.10844E-01
  0.30034E-01
  0.16779E-01
  0.46911E-02
 -0.13385E-01
  0.16427E-01
  0.14588E-01
  0.42510E-02
  0.12922E-01
  0.31895E-01
  0.70698E-02
  0.21020E-01
  0.31376E-01
  0.84236E-02
  0.59644E-02
  0.18540E-01
 -0.45020E-01
 -0.17148E-01
  0.85950E-02
 -0.17645E-01
  0.30962E-01
  0.68794E-02
  0.10556E-01
  0.14241E-01
  0.20593E-01
  0.57567E-02
  0.26797E-01
  0.22441E-01
  0.73586E-02
  0.21238E-01
  0.87199E-02
  0.15246E-01
 -0.37000E-02
  0.78928E-02
  0.26327E-01
  0.10855E-01
 -0.45846E-01
  0.14179E-01
  0.28958E-01
  0.60365E-02
 -0.32067E-01
  0.34477E-01
  0.12422E-01
  0.65673E-02
  0.66402E-02
  0.31095E-01
 -0.50709E-02
  0.21324E-01
  0.28422E-01
  0.11046E-02
  0.20005E-01
  0.25522E-01
  0.19714E-01
  0.36197E-01
  0.32667E-01
  0.25065E-01
 -0.96265E-02
  0.23597E-01
  0.64542E-02
 -0.16328E-02
 -0.22253E-01