# vtk DataFile Version 2.0
Unstructured Grid UFVM-ECOMOD
ASCII
DATASET UNSTRUCTURED_GRID
 POINTS         1724  float
  0.00000E+00  0.00000E+00  0.00000E+00
  0.40000E+01  0.00000E+00  0.00000E+00
  0.40000E+01  0.20000E+01  0.00000E+00
  0.00000E+00  0.20000E+01  0.00000E+00
  0.15750E+01  0.10287E+01  0.00000E+00
  0.15677E+01  0.97091E+00  0.00000E+00
  0.15461E+01  0.91674E+00  0.00000E+00
  0.15118E+01  0.86961E+00  0.00000E+00
  0.14667E+01  0.83248E+00  0.00000E+00
  0.14138E+01  0.80767E+00  0.00000E+00
  0.13563E+01  0.79675E+00  0.00000E+00
  0.12979E+01  0.80041E+00  0.00000E+00
  0.12423E+01  0.81842E+00  0.00000E+00
  0.11929E+01  0.84963E+00  0.00000E+00
  0.11529E+01  0.89210E+00  0.00000E+00
  0.11247E+01  0.94315E+00  0.00000E+00
  0.11102E+01  0.99958E+00  0.00000E+00
  0.11102E+01  0.10578E+01  0.00000E+00
  0.11247E+01  0.11143E+01  0.00000E+00
  0.11529E+01  0.11653E+01  0.00000E+00
  0.11929E+01  0.12078E+01  0.00000E+00
  0.12423E+01  0.12390E+01  0.00000E+00
  0.12979E+01  0.12570E+01  0.00000E+00
  0.13563E+01  0.12607E+01  0.00000E+00
  0.14138E+01  0.12497E+01  0.00000E+00
  0.14667E+01  0.12249E+01  0.00000E+00
  0.15118E+01  0.11878E+01  0.00000E+00
  0.15461E+01  0.11407E+01  0.00000E+00
  0.15677E+01  0.10865E+01  0.00000E+00
  0.10000E+00  0.00000E+00  0.00000E+00
  0.20000E+00  0.00000E+00  0.00000E+00
  0.30000E+00  0.00000E+00  0.00000E+00
  0.40000E+00  0.00000E+00  0.00000E+00
  0.50000E+00  0.00000E+00  0.00000E+00
  0.60000E+00  0.00000E+00  0.00000E+00
  0.70000E+00  0.00000E+00  0.00000E+00
  0.80000E+00  0.00000E+00  0.00000E+00
  0.90000E+00  0.00000E+00  0.00000E+00
  0.10000E+01  0.00000E+00  0.00000E+00
  0.11000E+01  0.00000E+00  0.00000E+00
  0.12000E+01  0.00000E+00  0.00000E+00
  0.13000E+01  0.00000E+00  0.00000E+00
  0.14000E+01  0.00000E+00  0.00000E+00
  0.15000E+01  0.00000E+00  0.00000E+00
  0.16000E+01  0.00000E+00  0.00000E+00
  0.17000E+01  0.00000E+00  0.00000E+00
  0.18000E+01  0.00000E+00  0.00000E+00
  0.19000E+01  0.00000E+00  0.00000E+00
  0.20000E+01  0.00000E+00  0.00000E+00
  0.21000E+01  0.00000E+00  0.00000E+00
  0.22000E+01  0.00000E+00  0.00000E+00
  0.23000E+01  0.00000E+00  0.00000E+00
  0.24000E+01  0.00000E+00  0.00000E+00
  0.25000E+01  0.00000E+00  0.00000E+00
  0.26000E+01  0.00000E+00  0.00000E+00
  0.27000E+01  0.00000E+00  0.00000E+00
  0.28000E+01  0.00000E+00  0.00000E+00
  0.29000E+01  0.00000E+00  0.00000E+00
  0.30000E+01  0.00000E+00  0.00000E+00
  0.31000E+01  0.00000E+00  0.00000E+00
  0.32000E+01  0.00000E+00  0.00000E+00
  0.33000E+01  0.00000E+00  0.00000E+00
  0.34000E+01  0.00000E+00  0.00000E+00
  0.35000E+01  0.00000E+00  0.00000E+00
  0.36000E+01  0.00000E+00  0.00000E+00
  0.37000E+01  0.00000E+00  0.00000E+00
  0.38000E+01  0.00000E+00  0.00000E+00
  0.39000E+01  0.00000E+00  0.00000E+00
  0.40000E+01  0.10000E+00  0.00000E+00
  0.40000E+01  0.20000E+00  0.00000E+00
  0.40000E+01  0.30000E+00  0.00000E+00
  0.40000E+01  0.40000E+00  0.00000E+00
  0.40000E+01  0.50000E+00  0.00000E+00
  0.40000E+01  0.60000E+00  0.00000E+00
  0.40000E+01  0.70000E+00  0.00000E+00
  0.40000E+01  0.80000E+00  0.00000E+00
  0.40000E+01  0.90000E+00  0.00000E+00
  0.40000E+01  0.10000E+01  0.00000E+00
  0.40000E+01  0.11000E+01  0.00000E+00
  0.40000E+01  0.12000E+01  0.00000E+00
  0.40000E+01  0.13000E+01  0.00000E+00
  0.40000E+01  0.14000E+01  0.00000E+00
  0.40000E+01  0.15000E+01  0.00000E+00
  0.40000E+01  0.16000E+01  0.00000E+00
  0.40000E+01  0.17000E+01  0.00000E+00
  0.40000E+01  0.18000E+01  0.00000E+00
  0.40000E+01  0.19000E+01  0.00000E+00
  0.39000E+01  0.20000E+01  0.00000E+00
  0.38000E+01  0.20000E+01  0.00000E+00
  0.37000E+01  0.20000E+01  0.00000E+00
  0.36000E+01  0.20000E+01  0.00000E+00
  0.35000E+01  0.20000E+01  0.00000E+00
  0.34000E+01  0.20000E+01  0.00000E+00
  0.33000E+01  0.20000E+01  0.00000E+00
  0.32000E+01  0.20000E+01  0.00000E+00
  0.31000E+01  0.20000E+01  0.00000E+00
  0.30000E+01  0.20000E+01  0.00000E+00
  0.29000E+01  0.20000E+01  0.00000E+00
  0.28000E+01  0.20000E+01  0.00000E+00
  0.27000E+01  0.20000E+01  0.00000E+00
  0.26000E+01  0.20000E+01  0.00000E+00
  0.25000E+01  0.20000E+01  0.00000E+00
  0.24000E+01  0.20000E+01  0.00000E+00
  0.23000E+01  0.20000E+01  0.00000E+00
  0.22000E+01  0.20000E+01  0.00000E+00
  0.21000E+01  0.20000E+01  0.00000E+00
  0.20000E+01  0.20000E+01  0.00000E+00
  0.19000E+01  0.20000E+01  0.00000E+00
  0.18000E+01  0.20000E+01  0.00000E+00
  0.17000E+01  0.20000E+01  0.00000E+00
  0.16000E+01  0.20000E+01  0.00000E+00
  0.15000E+01  0.20000E+01  0.00000E+00
  0.14000E+01  0.20000E+01  0.00000E+00
  0.13000E+01  0.20000E+01  0.00000E+00
  0.12000E+01  0.20000E+01  0.00000E+00
  0.11000E+01  0.20000E+01  0.00000E+00
  0.10000E+01  0.20000E+01  0.00000E+00
  0.90000E+00  0.20000E+01  0.00000E+00
  0.80000E+00  0.20000E+01  0.00000E+00
  0.70000E+00  0.20000E+01  0.00000E+00
  0.60000E+00  0.20000E+01  0.00000E+00
  0.50000E+00  0.20000E+01  0.00000E+00
  0.40000E+00  0.20000E+01  0.00000E+00
  0.30000E+00  0.20000E+01  0.00000E+00
  0.20000E+00  0.20000E+01  0.00000E+00
  0.10000E+00  0.20000E+01  0.00000E+00
  0.00000E+00  0.19000E+01  0.00000E+00
  0.00000E+00  0.18000E+01  0.00000E+00
  0.00000E+00  0.17000E+01  0.00000E+00
  0.00000E+00  0.16000E+01  0.00000E+00
  0.00000E+00  0.15000E+01  0.00000E+00
  0.00000E+00  0.14000E+01  0.00000E+00
  0.00000E+00  0.13000E+01  0.00000E+00
  0.00000E+00  0.12000E+01  0.00000E+00
  0.00000E+00  0.11000E+01  0.00000E+00
  0.00000E+00  0.10000E+01  0.00000E+00
  0.00000E+00  0.90000E+00  0.00000E+00
  0.00000E+00  0.80000E+00  0.00000E+00
  0.00000E+00  0.70000E+00  0.00000E+00
  0.00000E+00  0.60000E+00  0.00000E+00
  0.00000E+00  0.50000E+00  0.00000E+00
  0.00000E+00  0.40000E+00  0.00000E+00
  0.00000E+00  0.30000E+00  0.00000E+00
  0.00000E+00  0.20000E+00  0.00000E+00
  0.00000E+00  0.10000E+00  0.00000E+00
  0.15713E+01  0.99981E+00  0.00000E+00
  0.15569E+01  0.94382E+00  0.00000E+00
  0.15290E+01  0.89318E+00  0.00000E+00
  0.14892E+01  0.85104E+00  0.00000E+00
  0.14402E+01  0.82007E+00  0.00000E+00
  0.13850E+01  0.80221E+00  0.00000E+00
  0.13271E+01  0.79858E+00  0.00000E+00
  0.12701E+01  0.80941E+00  0.00000E+00
  0.12176E+01  0.83402E+00  0.00000E+00
  0.11729E+01  0.87086E+00  0.00000E+00
  0.11388E+01  0.91762E+00  0.00000E+00
  0.11175E+01  0.97136E+00  0.00000E+00
  0.11102E+01  0.10287E+01  0.00000E+00
  0.11175E+01  0.10860E+01  0.00000E+00
  0.11388E+01  0.11398E+01  0.00000E+00
  0.11729E+01  0.11865E+01  0.00000E+00
  0.12176E+01  0.12234E+01  0.00000E+00
  0.12701E+01  0.12480E+01  0.00000E+00
  0.13271E+01  0.12588E+01  0.00000E+00
  0.13850E+01  0.12552E+01  0.00000E+00
  0.14402E+01  0.12373E+01  0.00000E+00
  0.14892E+01  0.12064E+01  0.00000E+00
  0.15290E+01  0.11642E+01  0.00000E+00
  0.15569E+01  0.11136E+01  0.00000E+00
  0.15713E+01  0.10576E+01  0.00000E+00
  0.15994E+01  0.10133E+01  0.00000E+00
  0.15863E+01  0.11089E+01  0.00000E+00
  0.25478E+01  0.10053E+00  0.00000E+00
  0.25434E+01  0.19142E+01  0.00000E+00
  0.11238E+01  0.89266E+00  0.00000E+00
  0.11061E+01  0.11423E+01  0.00000E+00
  0.15575E+01  0.89126E+00  0.00000E+00
  0.10894E+01  0.97917E+00  0.00000E+00
  0.15393E+01  0.11910E+01  0.00000E+00
  0.11627E+01  0.12175E+01  0.00000E+00
  0.14962E+01  0.82262E+00  0.00000E+00
  0.29512E+01  0.95010E-01  0.00000E+00
  0.29494E+01  0.19117E+01  0.00000E+00
  0.39186E+01  0.10466E+01  0.00000E+00
  0.11913E+01  0.82197E+00  0.00000E+00
  0.12788E+01  0.78594E+00  0.00000E+00
  0.21500E+01  0.86600E-01  0.00000E+00
  0.21472E+01  0.19005E+01  0.00000E+00
  0.14041E+01  0.78007E+00  0.00000E+00
  0.14641E+01  0.12550E+01  0.00000E+00
  0.13764E+01  0.12826E+01  0.00000E+00
  0.99450E-01  0.63780E+00  0.00000E+00
  0.92450E-01  0.13422E+01  0.00000E+00
  0.12473E+01  0.12677E+01  0.00000E+00
  0.65677E+00  0.19154E+01  0.00000E+00
  0.86110E-01  0.10467E+01  0.00000E+00
  0.75000E+00  0.86600E-01  0.00000E+00
  0.33379E+01  0.88030E-01  0.00000E+00
  0.33490E+01  0.19201E+01  0.00000E+00
  0.18500E+01  0.86600E-01  0.00000E+00
  0.18441E+01  0.19006E+01  0.00000E+00
  0.38922E+01  0.64055E+00  0.00000E+00
  0.39154E+01  0.13500E+01  0.00000E+00
  0.10564E+01  0.85180E-01  0.00000E+00
  0.94817E+00  0.19249E+01  0.00000E+00
  0.15421E+01  0.85450E-01  0.00000E+00
  0.15479E+01  0.19161E+01  0.00000E+00
  0.12386E+01  0.19130E+01  0.00000E+00
  0.45294E+00  0.85030E-01  0.00000E+00
  0.86890E-01  0.16531E+01  0.00000E+00
  0.36495E+01  0.78620E-01  0.00000E+00
  0.36510E+01  0.19107E+01  0.00000E+00
  0.10846E+01  0.10423E+01  0.00000E+00
  0.15860E+01  0.94842E+00  0.00000E+00
  0.13392E+01  0.77093E+00  0.00000E+00
  0.13108E+01  0.12864E+01  0.00000E+00
  0.87300E-01  0.35008E+00  0.00000E+00
  0.34468E+00  0.19176E+01  0.00000E+00
  0.39135E+01  0.16499E+01  0.00000E+00
  0.39252E+01  0.34254E+00  0.00000E+00
  0.13680E+01  0.88360E-01  0.00000E+00
  0.88350E-01  0.84594E+00  0.00000E+00
  0.23513E+01  0.77830E-01  0.00000E+00
  0.23488E+01  0.19154E+01  0.00000E+00
  0.27481E+01  0.80910E-01  0.00000E+00
  0.31480E+01  0.84140E-01  0.00000E+00
  0.31513E+01  0.19149E+01  0.00000E+00
  0.27502E+01  0.19198E+01  0.00000E+00
  0.39134E+01  0.85000E+00  0.00000E+00
  0.25071E+00  0.86200E-01  0.00000E+00
  0.91130E-01  0.18412E+01  0.00000E+00
  0.38461E+01  0.84360E-01  0.00000E+00
  0.38408E+01  0.19092E+01  0.00000E+00
  0.97440E-01  0.15849E+00  0.00000E+00
  0.15988E+01  0.10458E+01  0.00000E+00
  0.16261E+01  0.10305E+01  0.00000E+00
  0.16281E+01  0.99836E+00  0.00000E+00
  0.16554E+01  0.10148E+01  0.00000E+00
  0.16578E+01  0.98164E+00  0.00000E+00
  0.16863E+01  0.99914E+00  0.00000E+00
  0.16884E+01  0.96239E+00  0.00000E+00
  0.17222E+01  0.98417E+00  0.00000E+00
  0.17231E+01  0.93952E+00  0.00000E+00
  0.17605E+01  0.96435E+00  0.00000E+00
  0.17576E+01  0.10098E+01  0.00000E+00
  0.17991E+01  0.98970E+00  0.00000E+00
  0.17625E+01  0.91931E+00  0.00000E+00
[...]
 POINT_DATA         1724
  
 SCALARS WL      float 1
 LOOKUP_TABLE default
  0.21502E-01
  0.58260E-02
 -0.19543E-04
  0.34600E-01
 -0.40314E-01
 -0.33356E-01
 -0.20086E-01
 -0.75336E-02
 -0.43001E-02
 -0.22220E-02
 -0.93408E-04
 -0.53216E-02
  0.45210E-04
  0.94655E-02
  0.25407E-01
  0.36868E-01
  0.43799E-01
  0.44128E-01
  0.37694E-01
  0.25722E-01
  0.69665E-02
 -0.15277E-01
 -0.39387E-01
 -0.63035E-01
 -0.66310E-01
 -0.49460E-01
 -0.46401E-01
 -0.44163E-01
 -0.42194E-01
  0.21271E-01
  0.20864E-01
  0.20294E-01
  0.19558E-01
  0.18609E-01
  0.17424E-01
  0.16023E-01
  0.14454E-01
  0.12604E-01
  0.10661E-01
  0.91822E-02
  0.80480E-02
  0.76497E-02
  0.83136E-02
  0.90726E-02
  0.99396E-02
  0.10584E-01
  0.10980E-01
  0.11385E-01
  0.11527E-01
  0.11703E-01
  0.11605E-01
  0.11385E-01
  0.10696E-01
  0.10118E-01
  0.96222E-02
  0.96337E-02
  0.10189E-01
  0.11170E-01
  0.12910E-01
  0.14867E-01
  0.16731E-01
  0.18439E-01
  0.19263E-01
  0.19563E-01
  0.18645E-01
  0.16697E-01
  0.14029E-01
  0.96567E-02
  0.00000E+00
  0.00000E+00
  0.00000E+00
  0.00000E+00
  0.00000E+00
  0.00000E+00
  0.00000E+00
  0.00000E+00
  0.00000E+00
  0.00000E+00
  0.00000E+00
  0.00000E+00
  0.00000E+00
  0.00000E+00
  0.00000E+00
  0.00000E+00
  0.00000E+00
  0.00000E+00
  0.00000E+00
 -0.91967E-04
  0.51143E-03
  0.24610E-02
  0.48380E-02
  0.72095E-02
  0.94732E-02
  0.10642E-01
  0.10718E-01
  0.96720E-02
  0.78459E-02
  0.63926E-02
  0.62144E-02
  0.70162E-02
  0.82717E-02
  0.96511E-02
  0.10811E-01
  0.11555E-01
  0.11832E-01
  0.11675E-01
  0.11036E-01
  0.10209E-01
  0.93452E-02
  0.85391E-02
  0.82052E-02
  0.86857E-02
  0.10029E-01
  0.12130E-01
  0.14701E-01
  0.17448E-01
  0.20175E-01
  0.22778E-01
  0.25091E-01
  0.27180E-01
  0.29040E-01
  0.30773E-01
  0.32328E-01
  0.33547E-01
  0.34352E-01
  0.34685E-01
  0.34429E-01
  0.33983E-01
  0.33352E-01
  0.32461E-01
  0.31584E-01
  0.30388E-01
  0.29312E-01
  0.28237E-01
  0.27286E-01
  0.26411E-01
  0.25606E-01
  0.24876E-01
  0.24148E-01
  0.23524E-01
  0.22962E-01
  0.22477E-01
  0.22082E-01
  0.21787E-01
  0.21593E-01
 -0.38222E-01
 -0.27381E-01
 -0.12054E-01
 -0.47790E-02
 -0.41131E-02
 -0.55027E-03
 -0.29226E-02
 -0.54973E-02
  0.29404E-02
  0.17938E-01
  0.31830E-01
  0.41586E-01
  0.44714E-01
  0.42183E-01
  0.32739E-01
  0.16714E-01
 -0.31089E-02
 -0.26584E-01
 -0.52594E-01
 -0.67928E-01
 -0.58390E-01
 -0.46740E-01
 -0.45118E-01
 -0.43071E-01
 -0.41353E-01
 -0.37544E-01
 -0.41632E-01
  0.10163E-01
  0.91715E-02
  0.30072E-01
  0.35256E-01
 -0.15222E-01
  0.42555E-01
 -0.45053E-01
  0.15131E-01
 -0.54098E-02
  0.12641E-01
  0.67334E-02
 -0.33213E-02
  0.82892E-02
 -0.42674E-02
  0.11485E-01
  0.11845E-01
 -0.12282E-02
 -0.52549E-01
 -0.60912E-01
  0.23681E-01
  0.30105E-01
 -0.16347E-01
  0.28116E-01
  0.26935E-01
  0.15352E-01
  0.18564E-01
  0.10135E-01
  0.10863E-01
  0.94098E-02
 -0.13811E-01
  0.43040E-02
  0.10024E-01
  0.21553E-01
  0.93807E-02
  0.79798E-02
  0.13499E-01
  0.19156E-01
  0.33202E-01
  0.17177E-01
  0.38053E-02
  0.44293E-01
 -0.28781E-01
 -0.66446E-03
 -0.40259E-01
  0.22116E-01
  0.33033E-01
  0.19912E-02
  0.22513E-02
  0.82026E-02
  0.25237E-01
  0.11069E-01
  0.11342E-01
  0.10198E-01
  0.15967E-01
  0.10365E-01
  0.63824E-02
 -0.12917E-01
  0.20662E-01
  0.34350E-01
  0.11682E-01
  0.33741E-03
  0.21468E-01
 -0.39454E-01
 -0.36817E-01
 -0.35409E-01
 -0.36234E-01
 -0.34342E-01
 -0.35996E-01
 -0.33249E-01
 -0.35063E-01
 -0.31046E-01
 -0.32567E-01
 -0.35547E-01
 -0.31810E-01
 -0.27617E-01
 -0.32934E-01
 -0.28107E-01
 -0.26709E-01
 -0.22245E-01
 -0.18984E-01
 -0.15852E-01
 -0.19349E-01
 -0.14190E-01
 -0.18682E-01
 -0.15471E-01
 -0.20545E-01
 -0.19236E-01
 -0.24147E-01
 -0.23520E-01
 -0.10111E-01
 -0.28042E-01
 -0.25705E-01
 -0.19659E-01
 -0.19192E-01
 -0.25521E-01
 -0.12382E-01
 -0.10461E-01
 -0.13539E-01
 -0.57026E-02
 -0.52633E-02
 -0.46251E-03
 -0.61703E-03
  0.16735E-02
  0.36569E-02
  0.34959E-02
  0.13587E-02
  0.95249E-03
  0.49641E-02
  0.56496E-03
 -0.43230E-02
 -0.62101E-02
  0.10147E-02
 -0.56010E-02
  0.26129E-02
 -0.29378E-02
 -0.11316E-01
 -0.72025E-02
 -0.32629E-04
 -0.14143E-01
 -0.86167E-02
 -0.12491E-01
 -0.23198E-01
 -0.72341E-02
 -0.76167E-02
 -0.13177E-01
 -0.28612E-01
 -0.22902E-01
 -0.23802E-01
 -0.17526E-01
 -0.15320E-01
 -0.10134E-01
 -0.41178E-02
 -0.45019E-02
 -0.23887E-02
 -0.56676E-02
 -0.83739E-02
 -0.32327E-02
  0.52017E-03
  0.28165E-02
  0.71028E-02
 -0.78714E-03
  0.18260E-02
  0.70482E-02
  0.93659E-02
 -0.24458E-01
  0.81878E-02
  0.89831E-02
  0.79653E-02
  0.80305E-02
  0.92135E-02
  0.75281E-02
  0.83363E-02
  0.63973E-02
  0.66546E-02
  0.58914E-02
 -0.70287E-02
  0.80781E-03
  0.16770E-02
  0.64251E-02
  0.79378E-02
  0.55053E-02
 -0.20182E-01
  0.66766E-02
  0.63977E-02
 -0.15685E-01
  0.48913E-02
  0.21150E-02
  0.48117E-02
  0.45785E-02
  0.67980E-02
  0.72849E-02
  0.74247E-02
  0.63718E-02
  0.79114E-02
  0.10169E-01
  0.11746E-01
  0.60433E-02
  0.68361E-02
  0.87412E-02
  0.93688E-02
  0.10416E-01
  0.10546E-01
  0.11687E-01
  0.11604E-01
  0.13010E-01
  0.13090E-01
  0.14523E-01
  0.14936E-01
  0.16372E-01
  0.15410E-01
  0.17154E-01
  0.18415E-01
  0.18998E-01
  0.20612E-01
  0.20804E-01
  0.22693E-01
  0.22462E-01
  0.24486E-01
  0.23833E-01
  0.25928E-01
  0.24989E-01
  0.27003E-01
  0.25885E-01
  0.27679E-01
  0.24157E-01
  0.26514E-01
  0.28096E-01
  0.26918E-01
  0.28336E-01
  0.29610E-01
  0.29602E-01
  0.30899E-01
  0.30662E-01
  0.31900E-01
  0.31435E-01
  0.32508E-01
  0.31897E-01
  0.32719E-01
  0.32040E-01
  0.32534E-01
  0.31873E-01
  0.31961E-01
  0.31433E-01
  0.31071E-01
  0.31554E-01
  0.30328E-01
  0.30771E-01
  0.29974E-01
  0.20697E-01
  0.27288E-01
  0.25879E-01
  0.29957E-01
  0.30725E-01
  0.28833E-01
  0.28670E-01
  0.27280E-01
  0.26806E-01
  0.25318E-01
  0.24334E-01
  0.22897E-01
  0.21215E-01
  0.26275E-01
  0.24965E-01
  0.15888E-01
  0.32496E-01
  0.30086E-01
  0.30866E-01
  0.28648E-01
  0.28190E-01
  0.33463E-01
  0.20089E-01
  0.17574E-01
  0.26112E-01
  0.30389E-01
  0.31143E-01
  0.25371E-01
  0.24264E-01
  0.11518E-01
  0.16954E-01
  0.13810E-01
  0.22674E-01
  0.24726E-01
  0.26581E-01
  0.31295E-01
  0.31555E-01
  0.31372E-01
 -0.37185E-01
  0.23709E-01
  0.23214E-01
  0.22491E-01
  0.22210E-01
  0.21359E-01
  0.73188E-02
  0.30853E-01
  0.21285E-01
  0.70381E-02
 -0.10314E-01
 -0.14925E-01
  0.19791E-01
  0.13827E-01
  0.93781E-02
  0.10139E-01
  0.51266E-02
  0.67512E-02
  0.16479E-02
  0.40427E-02
 -0.70446E-03
 -0.42592E-02
 -0.72669E-02
 -0.19118E-02
 -0.66935E-02
 -0.13220E-01
 -0.11364E-01
 -0.53049E-02
 -0.86210E-02
 -0.33257E-02
 -0.50169E-02
 -0.10820E-01
 -0.59715E-02
 -0.11717E-01
 -0.64197E-02
 -0.16080E-02
 -0.14549E-02
  0.23966E-02
  0.31190E-02
  0.58450E-02
  0.67652E-02
  0.86693E-02
  0.97667E-02
  0.77716E-02
  0.10620E-01
  0.11797E-01
  0.12657E-01
  0.13106E-01
  0.13819E-01
  0.11326E-01
 -0.55657E-03
  0.10905E-01
  0.12462E-01
  0.14256E-01
  0.13658E-01
  0.14087E-01
  0.24724E-01
  0.63541E-02
  0.20384E-01
  0.20368E-01
  0.74644E-02
  0.13873E-01
  0.13745E-01
  0.13350E-01
  0.12006E-01
  0.11808E-01
  0.97136E-02
 -0.17943E-01
 -0.18192E-01
  0.94893E-02
  0.68433E-02
 -0.83544E-03
  0.16021E-02
 -0.22611E-02
  0.29817E-01
  0.77575E-02
  0.81230E-02
 -0.19296E-01
 -0.41547E-02
  0.92426E-02
  0.12926E-01
  0.13830E-01
  0.16127E-01
  0.16446E-01
  0.17635E-01
  0.17489E-01
  0.16150E-01
  0.16959E-01
  0.15374E-01
  0.17815E-01
  0.16144E-01
  0.14344E-01
  0.12662E-01
  0.11380E-01
  0.88602E-02
  0.71181E-02
  0.99708E-02
  0.49771E-02
  0.16177E-02
  0.86170E-02
  0.28154E-02
  0.65605E-02
  0.23458E-02
  0.35177E-02
 -0.53439E-02
  0.11906E-01
 -0.25383E-02
  0.47043E-03
  0.22060E-01
  0.21305E-01
 -0.11955E-01
 -0.53992E-03
  0.10683E-01
  0.13649E-01
  0.19325E-01
  0.13894E-01
  0.74714E-02
 -0.14935E-01
 -0.18940E-01
  0.79251E-02
  0.78462E-02
  0.15355E-01
  0.30088E-02
  0.30469E-01
  0.31444E-01
  0.56727E-02
  0.68726E-02
  0.11340E-02
  0.11152E-01
  0.32978E-03
 -0.50123E-02
 -0.25191E-01
 -0.25196E-01
 -0.67379E-02
  0.31624E-01
  0.31130E-01
 -0.34531E-02
 -0.11213E-01
  0.12373E-02
 -0.47962E-02
 -0.56902E-02
 -0.74895E-03
 -0.20738E-01
 -0.27959E-01
 -0.72953E-03
  0.10332E-01
  0.10700E-01
 -0.50600E-02
  0.10080E-02
  0.19370E-01
  0.19168E-01
  0.70945E-02
  0.82484E-02
  0.12248E-01
  0.16898E-01
 -0.10475E-01
 -0.11864E-02
 -0.63938E-02
  0.41728E-03
 -0.18126E-01
 -0.52224E-02
  0.68077E-02
  0.12461E-01
 -0.11081E-01
 -0.28385E-02
  0.80711E-02
  0.22007E-01
  0.11758E-01
 -0.27353E-01
  0.44194E-02
  0.21404E-01
  0.37432E-02
  0.30979E-01
  0.30456E-01
  0.30382E-01
  0.29645E-01
  0.29702E-01
  0.29615E-01
  0.28746E-01
  0.82975E-02
  0.29217E-01
 -0.45685E-02
 -0.44263E-03
  0.15112E-01
  0.64813E-02
  0.66066E-02
  0.29041E-02
  0.59694E-02
 -0.24245E-01
  0.31220E-01
  0.32110E-01
  0.19555E-01
  0.17958E-01
  0.17822E-01
  0.22729E-01
 -0.32430E-01
 -0.32302E-01
  0.59414E-02
 -0.10465E-01
 -0.16093E-01
 -0.50468E-02
 -0.18247E-02
 -0.53022E-02
 -0.21170E-02
 -0.40265E-02
  0.83852E-03
 -0.54786E-03
 -0.96317E-03
  0.19176E-01
  0.17711E-01
  0.16395E-01
  0.16131E-01
  0.14832E-01
  0.14498E-01
  0.67077E-02
 -0.26809E-01
  0.27425E-02
  0.31345E-01
  0.31953E-01
  0.14314E-01
 -0.18303E-01
  0.44690E-02
  0.65991E-02
  0.28855E-02
  0.47968E-02
  0.98072E-02
  0.98909E-02
  0.10872E-01
 -0.16784E-02
  0.15845E-01
  0.10853E-01
 -0.31404E-01
 -0.13944E-01
  0.11302E-01
  0.28727E-01
  0.27789E-01
  0.27884E-01
  0.26943E-01
 -0.12110E-01
  0.11221E-01
 -0.38671E-01
 -0.38884E-01
 -0.31390E-01
 -0.37287E-01
  0.22609E-01
  0.23354E-01
  0.62998E-02
 -0.16161E-01
 -0.21421E-01
  0.10042E-01
  0.56819E-02
  0.22290E-02
  0.89534E-02
  0.88226E-02
  0.97184E-02
  0.96207E-02
 -0.39457E-01
  0.31688E-01
  0.28467E-01
  0.27715E-01
  0.77324E-02
  0.98791E-02
  0.22962E-01
  0.86025E-02
  0.70011E-02
  0.10993E-01
 -0.86724E-02
 -0.73799E-02
  0.77672E-02
  0.84542E-02
  0.13247E-01
  0.13821E-01
 -0.26105E-01
 -0.35030E-01
 -0.36422E-01
 -0.18291E-01
 -0.11978E-01
 -0.71952E-02
  0.15030E-01
  0.12024E-01
  0.13016E-01
 -0.10432E-02
  0.57891E-02
  0.11104E-02
  0.31612E-01
  0.32336E-01
  0.10955E-01
  0.19830E-02
  0.24231E-02
  0.25898E-02
  0.95530E-02
  0.32018E-01
  0.32816E-01
  0.30932E-01
  0.87491E-02
  0.85901E-02
  0.97383E-02
  0.30411E-01
 -0.11721E-01
 -0.65558E-02
 -0.13312E-01
  0.30607E-01
  0.26815E-01
  0.26005E-01
  0.24861E-01
  0.31651E-02
  0.16776E-02
 -0.67001E-02
  0.10370E-01
  0.59396E-02
  0.17312E-02
  0.49980E-02
  0.90144E-03
 -0.34046E-01
 -0.40404E-01
 -0.39239E-01
  0.26777E-01
  0.25980E-01
  0.26265E-01
  0.25363E-01
  0.97913E-02
  0.20664E-01
  0.20910E-01
  0.53600E-02
  0.24038E-01
  0.22777E-01
  0.25396E-01
 -0.11577E-01
 -0.10985E-01
  0.10476E-01
  0.10413E-01
  0.94125E-02
  0.10346E-01
  0.17719E-01
  0.16493E-01
  0.18744E-01
  0.16177E-01
  0.18399E-01
 -0.12318E-01
  0.28639E-01
  0.16010E-01
  0.13643E-01
 -0.40962E-01
 -0.42287E-01
  0.70853E-03
  0.29505E-02
  0.31889E-01
  0.33653E-02
  0.14622E-01
 -0.27686E-01
 -0.31493E-01
 -0.44362E-01
 -0.33816E-01
 -0.23392E-01
 -0.23117E-01
 -0.52035E-02
 -0.87332E-03
  0.17725E-01
  0.17114E-01
  0.16993E-01
  0.15623E-01
  0.15509E-01
  0.13706E-01
  0.13757E-01
  0.91172E-02
  0.10336E-01
  0.10973E-01
  0.11049E-01
  0.25039E-01
  0.24487E-01
  0.79612E-02
  0.88012E-02
  0.84226E-02
 -0.81834E-02
  0.18378E-01
  0.12453E-02
 -0.67079E-02
  0.20159E-01
  0.53925E-02
  0.44772E-02
  0.76413E-02
  0.94038E-02
 -0.23617E-01
  0.15541E-02
  0.38786E-02
 -0.39994E-01
 -0.33070E-01
 -0.20632E-01
 -0.13246E-01
 -0.97050E-02
 -0.17896E-01
 -0.46512E-02
 -0.86430E-02
  0.14007E-02
 -0.61278E-03
  0.78670E-02
  0.74435E-02
  0.14501E-01
  0.13534E-01
  0.18819E-01
  0.20703E-01
  0.23366E-01
  0.25739E-01
  0.27003E-01
  0.29562E-01
  0.28846E-01
  0.32559E-01
  0.32007E-01
  0.34541E-01
  0.33409E-01
  0.35281E-01
  0.36813E-01
  0.36900E-01
  0.38769E-01
  0.37987E-01
  0.39955E-01
  0.38459E-01
  0.36779E-01
  0.36726E-01
  0.38309E-01
  0.36037E-01
  0.36827E-01
  0.34829E-01
  0.35099E-01
  0.37052E-01
  0.34756E-01
  0.32958E-01
  0.32031E-01
  0.36664E-01
  0.35385E-01
  0.30613E-01
  0.29167E-01
  0.30195E-01
  0.26814E-01
  0.26216E-01
  0.23590E-01
  0.38675E-01
  0.31478E-01
  0.33933E-01
  0.21366E-01
  0.19456E-01
  0.21491E-01
  0.18102E-01
  0.15041E-01
  0.14750E-01
  0.11042E-01
  0.11843E-01
  0.81223E-02
  0.96836E-02
  0.65810E-02
  0.83547E-02
  0.17367E-01
  0.32451E-01
  0.31485E-01
  0.24117E-01
  0.34185E-01
  0.32819E-01
  0.39000E-01
  0.35353E-01
  0.27451E-01
  0.10073E-01
  0.21537E-01
  0.21101E-01
 -0.37592E-02
  0.79086E-02
 -0.39307E-01
 -0.22060E-02
 -0.78264E-02
  0.91536E-02
 -0.43563E-01
  0.91636E-02
  0.91185E-02
  0.13801E-01
  0.15355E-01
  0.63237E-02
  0.19757E-02
  0.11951E-02
 -0.15417E-02
  0.12461E-01
 -0.17305E-02
  0.66872E-02
  0.38199E-01
  0.10132E-01
  0.16080E-01
  0.49522E-02
  0.14585E-02
  0.16866E-01
  0.30878E-02
 -0.14814E-02
 -0.41613E-02
 -0.39057E-01
  0.38300E-02
  0.34832E-01
  0.40366E-01
 -0.36458E-02
 -0.47548E-01
 -0.41118E-02
  0.23570E-01
  0.20554E-01
  0.96540E-02
  0.32670E-01
  0.11920E-01
  0.12117E-01
  0.12013E-01
 -0.18695E-01
 -0.22047E-01
 -0.21865E-01
  0.23520E-01
  0.27926E-01
 -0.48725E-01
  0.13082E-01
  0.32071E-01
 -0.16580E-01
 -0.18137E-01
 -0.29352E-02
  0.74088E-02
  0.36130E-02
  0.47030E-02
  0.28169E-01
  0.23148E-01
  0.22553E-01
  0.14609E-01
  0.14552E-01
  0.17093E-01
  0.16610E-01
  0.34286E-01
  0.10271E-01
  0.95725E-02
  0.86316E-03
  0.25155E-01
  0.27563E-01
 -0.36859E-02
  0.10005E-01
  0.90281E-02
 -0.10754E-01
  0.19290E-02
  0.11131E-01
  0.11300E-01
 -0.21109E-01
 -0.17416E-01
 -0.44153E-01
 -0.41065E-01
  0.13209E-01
  0.12248E-01
  0.13040E-01
  0.32546E-01
  0.31066E-01
  0.32878E-01
  0.16673E-01
  0.10463E-01
  0.34797E-02
 -0.21227E-01
 -0.24831E-01
  0.12833E-01
  0.38390E-01
  0.31846E-01
  0.30503E-01
  0.11316E-01
 -0.52385E-01
  0.33345E-01
  0.12866E-01
  0.14827E-01
  0.12178E-01
  0.10376E-01
  0.16915E-01
  0.87313E-02
  0.88751E-02
  0.87571E-02
  0.18843E-01
  0.10642E-01
  0.13412E-01
  0.68906E-02
  0.48998E-02
  0.16558E-01
 -0.46141E-01
 -0.19599E-01
 -0.21608E-01
 -0.16749E-01
 -0.22287E-01
  0.73044E-02
 -0.75935E-02
  0.26194E-01
 -0.16036E-01
  0.97577E-02
  0.86952E-02
  0.10966E-01
  0.35854E-01
  0.60332E-02
  0.11798E-01
  0.23870E-01
 -0.62682E-02
 -0.10768E-01
  0.94467E-02
 -0.28889E-02
 -0.40251E-01
  0.30248E-01
  0.31076E-01
  0.40962E-01
  0.41913E-01
  0.40301E-01
  0.41711E-01
  0.40025E-01
 -0.10737E-02
  0.23073E-01
  0.55173E-02
  0.44115E-01
  0.88664E-02
  0.90528E-02
  0.22586E-01
  0.24650E-01
  0.62667E-02
  0.55940E-03
  0.84474E-02
 -0.24103E-03
 -0.83230E-02
  0.11172E-01
  0.16112E-01
 -0.51555E-02
 -0.90046E-02
 -0.93104E-02
 -0.74452E-02
  0.16166E-01
  0.13667E-01
  0.11999E-01
  0.11049E-01
  0.29165E-01
  0.43104E-01
  0.61306E-02
  0.57949E-02
  0.56228E-02
  0.41262E-03
  0.50420E-02
  0.55002E-02
  0.15580E-01
 -0.22182E-02
 -0.26801E-01
  0.37385E-02
  0.93342E-03
 -0.42732E-02
 -0.51084E-01
 -0.33802E-01
 -0.38637E-01
  0.31673E-01
  0.32107E-01
  0.32803E-01
  0.33212E-02
 -0.34497E-01
 -0.29982E-01
 -0.24430E-02
 -0.13438E-01
  0.23848E-01
  0.24422E-01
  0.17317E-01
  0.33713E-01
 -0.92520E-02
 -0.15103E-01
 -0.16060E-01
  0.20458E-01
  0.20693E-01
  0.21932E-01
  0.19313E-01
  0.21083E-01
  0.21572E-01
  0.23737E-01
  0.24457E-01
  0.30998E-01
  0.31246E-01
  0.31299E-01
  0.31164E-01
  0.11687E-01
  0.29668E-01
  0.28782E-01
  0.30580E-01
  0.31030E-01
  0.27747E-01
  0.29902E-01
  0.28992E-01
 -0.14590E-01
  0.11819E-01
  0.11888E-01
  0.11209E-01
  0.12087E-01
  0.12393E-01
  0.11249E-01
  0.13006E-01
  0.12675E-01
  0.12259E-01
  0.10258E-01
  0.10051E-01
  0.47633E-02
  0.26041E-01
  0.26589E-01
  0.27690E-01
  0.27902E-01
  0.28802E-01
  0.28786E-01
  0.29092E-01
 -0.64602E-02
 -0.10352E-01
  0.86139E-02
  0.26830E-01
  0.29021E-01
  0.29458E-01
 -0.20012E-01
 -0.14128E-01
  0.97711E-03
 -0.56818E-02
  0.23739E-01
  0.27759E-01
  0.27849E-01
  0.22429E-01
  0.10498E-01
  0.10766E-01
  0.11123E-01
  0.88737E-02
  0.85655E-02
  0.63887E-02
  0.52381E-02
  0.33508E-02
  0.50572E-02
  0.82066E-02
  0.89055E-02
  0.29328E-01
  0.79210E-02
  0.65982E-02
  0.71380E-02
  0.51941E-02
  0.60756E-02
  0.79397E-02
  0.71882E-02
  0.46719E-02
 -0.16546E-01
  0.23984E-01
  0.26188E-01
  0.27430E-01
  0.94890E-02
  0.10501E-01
  0.97194E-02
  0.10745E-01
  0.98393E-02
  0.11056E-01
  0.98679E-02
  0.81953E-02
  0.11538E-01
  0.11326E-01
  0.16847E-01
  0.16527E-01
  0.17766E-01
  0.16510E-01
  0.17671E-01
  0.18105E-01
  0.18857E-01
 -0.41479E-02
  0.24106E-01
 -0.45669E-01
  0.15048E-02
  0.68434E-02
 -0.10863E-01
  0.98822E-02
  0.76606E-02
  0.68083E-02
  0.67151E-02
  0.85724E-02
  0.81432E-02
  0.30088E-01
 -0.31377E-01
  0.22427E-02
  0.34765E-01
  0.81228E-02
  0.29087E-02
  0.12078E-01
  0.18837E-01
  0.85064E-02
  0.13649E-01
  0.24591E-02
  0.11101E-01
  0.61276E-02
  0.75331E-02
  0.11328E-01
  0.11357E-01
 -0.16705E-01
 -0.64017E-02
 -0.39372E-02
 -0.43212E-02
 -0.33529E-01
  0.93127E-02
  0.42389E-02
  0.15521E-01
  0.13305E-01
  0.14431E-01
  0.16305E-01
  0.14506E-01
  0.15903E-01
  0.17074E-01
  0.16360E-01
  0.15946E-01
  0.16051E-01
  0.15582E-01
  0.20008E-01
  0.20542E-01
  0.12435E-01
  0.10577E-01
 -0.27766E-01
  0.10057E-01
  0.10692E-01
  0.33966E-01
  0.33476E-01
  0.34148E-01
  0.33566E-01
  0.33951E-01
  0.85893E-02
  0.14234E-01
  0.10407E-01
  0.71367E-02
  0.10977E-01
  0.16430E-02
  0.21757E-01
  0.10732E-01
  0.17349E-01
 -0.56078E-02
 -0.80552E-02
 -0.11213E-01
  0.31558E-02
  0.40666E-02
  0.61027E-02
  0.30867E-02
  0.38849E-02
  0.24609E-02
  0.42628E-02
  0.30399E-02
  0.12154E-02
  0.20721E-02
  0.42874E-02
  0.61311E-02
  0.64593E-02
  0.81918E-02
  0.82781E-02
  0.18673E-01
  0.14826E-01
  0.11729E-01
  0.74644E-02
  0.73164E-02
 -0.15374E-01
  0.10174E-02
 -0.61054E-04
 -0.21463E-01
 -0.14901E-01
  0.75773E-02
  0.14696E-02
  0.79735E-02
  0.59793E-02
 -0.63085E-02
  0.32780E-01
 -0.71138E-02
 -0.17696E-01
 -0.17014E-02
  0.69171E-02
  0.19450E-01
  0.35267E-01
  0.10441E-01
  0.11392E-01
 -0.86715E-02
  0.15595E-01
  0.44191E-02
 -0.21267E-01
 -0.30064E-02
  0.42592E-02
  0.81930E-02
  0.14144E-01
 -0.49725E-03
  0.13329E-01
 -0.21820E-01
 -0.40877E-01
 -0.42871E-01
  0.63057E-02
 -0.62252E-02
  0.33999E-01
  0.13324E-01
  0.10425E-01
 -0.13259E-02
  0.25771E-01
  0.33935E-01
  0.22909E-01
 -0.38237E-01
  0.82493E-02
  0.10856E-01
  0.14114E-01
 -0.13687E-01
  0.23708E-02
  0.17090E-01
  0.81050E-02
 -0.37303E-01
  0.46438E-02
  0.17457E-01
  0.28162E-02
  0.41109E-01
  0.91222E-02
 -0.21874E-01
  0.22548E-01
 -0.29135E-02
  0.15383E-01
  0.11251E-01
  0.16388E-01
  0.39415E-02
  0.12275E-01
 -0.96288E-02
  0.15676E-02
  0.11041E-01
  0.29005E-01
 -0.95684E-03
  0.16021E-02
  0.31646E-01
 -0.23758E-01
 -0.27655E-01
  0.15413E-02
  0.22022E-01
 -0.60880E-01
 -0.62573E-01
  0.51613E-02
  0.21212E-01
 -0.12306E-01
 -0.22978E-01
 -0.44171E-01
  0.13905E-01
  0.95920E-02
  0.30566E-01
  0.17639E-01
  0.27068E-02
 -0.16661E-01
  0.17501E-01
  0.13607E-01
  0.32464E-02
  0.14768E-01
  0.31553E-01
  0.99095E-02
  0.20619E-01
  0.31183E-01
  0.11782E-01
  0.52962E-02
  0.19524E-01
 -0.43601E-01
 -0.18948E-01
  0.11100E-01
 -0.15836E-01
  0.30072E-01
  0.90424E-02
  0.85682E-02
  0.16663E-01
  0.20508E-01
  0.57325E-02
  0.25907E-01
  0.23006E-01
  0.68360E-02
  0.21050E-01
  0.70645E-02
  0.16054E-01
 -0.54865E-02
  0.86127E-02
  0.26709E-01
  0.11438E-01
 -0.45793E-01
  0.16298E-01
  0.29427E-01
  0.45101E-02
 -0.33053E-01
  0.34504E-01
  0.13816E-01
  0.86611E-02
  0.80029E-02
  0.31370E-01
 -0.72890E-02
  0.21126E-01
  0.27639E-01
  0.29920E-03
  0.19875E-01
  0.25701E-01
  0.18746E-01
  0.36314E-01
  0.33153E-01
  0.24204E-01
 -0.89692E-02
  0.22590E-01
  0.91757E-02
 -0.25059E-02
 -0.23162E-01