# vtk DataFile Version 2.0
Unstructured Grid UFVM-ECOMOD
ASCII
DATASET UNSTRUCTURED_GRID
 POINTS         1724  float
  0.00000E+00  0.00000E+00  0.00000E+00
  0.40000E+01  0.00000E+00  0.00000E+00
  0.40000E+01  0.20000E+01  0.00000E+00
  0.00000E+00  0.20000E+01  0.00000E+00
  0.15750E+01  0.10287E+01  0.00000E+00
  0.15677E+01  0.97091E+00  0.00000E+00
  0.15461E+01  0.91674E+00  0.00000E+00
  0.15118E+01  0.86961E+00  0.00000E+00
  0.14667E+01  0.83248E+00  0.00000E+00
  0.14138E+01  0.80767E+00  0.00000E+00
  0.13563E+01  0.79675E+00  0.00000E+00
  0.12979E+01  0.80041E+00  0.00000E+00
  0.12423E+01  0.81842E+00  0.00000E+00
  0.11929E+01  0.84963E+00  0.00000E+00
  0.11529E+01  0.89210E+00  0.00000E+00
  0.11247E+01  0.94315E+00  0.00000E+00
  0.11102E+01  0.99958E+00  0.00000E+00
  0.11102E+01  0.10578E+01  0.00000E+00
  0.11247E+01  0.11143E+01  0.00000E+00
  0.11529E+01  0.11653E+01  0.00000E+00
  0.11929E+01  0.12078E+01  0.00000E+00
  0.12423E+01  0.12390E+01  0.00000E+00
  0.12979E+01  0.12570E+01  0.00000E+00
  0.13563E+01  0.12607E+01  0.00000E+00
  0.14138E+01  0.12497E+01  0.00000E+00
  0.14667E+01  0.12249E+01  0.00000E+00
  0.15118E+01  0.11878E+01  0.00000E+00
  0.15461E+01  0.11407E+01  0.00000E+00
  0.15677E+01  0.10865E+01  0.00000E+00
  0.10000E+00  0.00000E+00  0.00000E+00
  0.20000E+00  0.00000E+00  0.00000E+00
  0.30000E+00  0.00000E+00  0.00000E+00
  0.40000E+00  0.00000E+00  0.00000E+00
  0.50000E+00  0.00000E+00  0.00000E+00
  0.60000E+00  0.00000E+00  0.00000E+00
  0.70000E+00  0.00000E+00  0.00000E+00
  0.80000E+00  0.00000E+00  0.00000E+00
  0.90000E+00  0.00000E+00  0.00000E+00
  0.10000E+01  0.00000E+00  0.00000E+00
  0.11000E+01  0.00000E+00  0.00000E+00
  0.12000E+01  0.00000E+00  0.00000E+00
  0.13000E+01  0.00000E+00  0.00000E+00
  0.14000E+01  0.00000E+00  0.00000E+00
  0.15000E+01  0.00000E+00  0.00000E+00
  0.16000E+01  0.00000E+00  0.00000E+00
  0.17000E+01  0.00000E+00  0.00000E+00
  0.18000E+01  0.00000E+00  0.00000E+00
  0.19000E+01  0.00000E+00  0.00000E+00
  0.20000E+01  0.00000E+00  0.00000E+00
  0.21000E+01  0.00000E+00  0.00000E+00
  0.22000E+01  0.00000E+00  0.00000E+00
  0.23000E+01  0.00000E+00  0.00000E+00
  0.24000E+01  0.00000E+00  0.00000E+00
  0.25000E+01  0.00000E+00  0.00000E+00
  0.26000E+01  0.00000E+00  0.00000E+00
  0.27000E+01  0.00000E+00  0.00000E+00
  0.28000E+01  0.00000E+00  0.00000E+00
  0.29000E+01  0.00000E+00  0.00000E+00
  0.30000E+01  0.00000E+00  0.00000E+00
  0.31000E+01  0.00000E+00  0.00000E+00
  0.32000E+01  0.00000E+00  0.00000E+00
  0.33000E+01  0.00000E+00  0.00000E+00
  0.34000E+01  0.00000E+00  0.00000E+00
  0.35000E+01  0.00000E+00  0.00000E+00
  0.36000E+01  0.00000E+00  0.00000E+00
  0.37000E+01  0.00000E+00  0.00000E+00
  0.38000E+01  0.00000E+00  0.00000E+00
  0.39000E+01  0.00000E+00  0.00000E+00
  0.40000E+01  0.10000E+00  0.00000E+00
  0.40000E+01  0.20000E+00  0.00000E+00
  0.40000E+01  0.30000E+00  0.00000E+00
  0.40000E+01  0.40000E+00  0.00000E+00
  0.40000E+01  0.50000E+00  0.00000E+00
  0.40000E+01  0.60000E+00  0.00000E+00
  0.40000E+01  0.70000E+00  0.00000E+00
  0.40000E+01  0.80000E+00  0.00000E+00
  0.40000E+01  0.90000E+00  0.00000E+00
  0.40000E+01  0.10000E+01  0.00000E+00
  0.40000E+01  0.11000E+01  0.00000E+00
  0.40000E+01  0.12000E+01  0.00000E+00
  0.40000E+01  0.13000E+01  0.00000E+00
  0.40000E+01  0.14000E+01  0.00000E+00
  0.40000E+01  0.15000E+01  0.00000E+00
  0.40000E+01  0.16000E+01  0.00000E+00
  0.40000E+01  0.17000E+01  0.00000E+00
  0.40000E+01  0.18000E+01  0.00000E+00
  0.40000E+01  0.19000E+01  0.00000E+00
  0.39000E+01  0.20000E+01  0.00000E+00
  0.38000E+01  0.20000E+01  0.00000E+00
  0.37000E+01  0.20000E+01  0.00000E+00
  0.36000E+01  0.20000E+01  0.00000E+00
  0.35000E+01  0.20000E+01  0.00000E+00
  0.34000E+01  0.20000E+01  0.00000E+00
  0.33000E+01  0.20000E+01  0.00000E+00
  0.32000E+01  0.20000E+01  0.00000E+00
  0.31000E+01  0.20000E+01  0.00000E+00
  0.30000E+01  0.20000E+01  0.00000E+00
  0.29000E+01  0.20000E+01  0.00000E+00
  0.28000E+01  0.20000E+01  0.00000E+00
  0.27000E+01  0.20000E+01  0.00000E+00
  0.26000E+01  0.20000E+01  0.00000E+00
  0.25000E+01  0.20000E+01  0.00000E+00
  0.24000E+01  0.20000E+01  0.00000E+00
  0.23000E+01  0.20000E+01  0.00000E+00
  0.22000E+01  0.20000E+01  0.00000E+00
  0.21000E+01  0.20000E+01  0.00000E+00
  0.20000E+01  0.20000E+01  0.00000E+00
  0.19000E+01  0.20000E+01  0.00000E+00
  0.18000E+01  0.20000E+01  0.00000E+00
  0.17000E+01  0.20000E+01  0.00000E+00
  0.16000E+01  0.20000E+01  0.00000E+00
  0.15000E+01  0.20000E+01  0.00000E+00
  0.14000E+01  0.20000E+01  0.00000E+00
  0.13000E+01  0.20000E+01  0.00000E+00
  0.12000E+01  0.20000E+01  0.00000E+00
  0.11000E+01  0.20000E+01  0.00000E+00
  0.10000E+01  0.20000E+01  0.00000E+00
  0.90000E+00  0.20000E+01  0.00000E+00
  0.80000E+00  0.20000E+01  0.00000E+00
  0.70000E+00  0.20000E+01  0.00000E+00
  0.60000E+00  0.20000E+01  0.00000E+00
  0.50000E+00  0.20000E+01  0.00000E+00
  0.40000E+00  0.20000E+01  0.00000E+00
  0.30000E+00  0.20000E+01  0.00000E+00
  0.20000E+00  0.20000E+01  0.00000E+00
  0.10000E+00  0.20000E+01  0.00000E+00
  0.00000E+00  0.19000E+01  0.00000E+00
  0.00000E+00  0.18000E+01  0.00000E+00
  0.00000E+00  0.17000E+01  0.00000E+00
  0.00000E+00  0.16000E+01  0.00000E+00
  0.00000E+00  0.15000E+01  0.00000E+00
  0.00000E+00  0.14000E+01  0.00000E+00
  0.00000E+00  0.13000E+01  0.00000E+00
  0.00000E+00  0.12000E+01  0.00000E+00
  0.00000E+00  0.11000E+01  0.00000E+00
  0.00000E+00  0.10000E+01  0.00000E+00
  0.00000E+00  0.90000E+00  0.00000E+00
  0.00000E+00  0.80000E+00  0.00000E+00
  0.00000E+00  0.70000E+00  0.00000E+00
  0.00000E+00  0.60000E+00  0.00000E+00
  0.00000E+00  0.50000E+00  0.00000E+00
  0.00000E+00  0.40000E+00  0.00000E+00
  0.00000E+00  0.30000E+00  0.00000E+00
  0.00000E+00  0.20000E+00  0.00000E+00
  0.00000E+00  0.10000E+00  0.00000E+00
  0.15713E+01  0.99981E+00  0.00000E+00
  0.15569E+01  0.94382E+00  0.00000E+00
  0.15290E+01  0.89318E+00  0.00000E+00
  0.14892E+01  0.85104E+00  0.00000E+00
  0.14402E+01  0.82007E+00  0.00000E+00
  0.13850E+01  0.80221E+00  0.00000E+00
  0.13271E+01  0.79858E+00  0.00000E+00
  0.12701E+01  0.80941E+00  0.00000E+00
  0.12176E+01  0.83402E+00  0.00000E+00
  0.11729E+01  0.87086E+00  0.00000E+00
  0.11388E+01  0.91762E+00  0.00000E+00
  0.11175E+01  0.97136E+00  0.00000E+00
  0.11102E+01  0.10287E+01  0.00000E+00
  0.11175E+01  0.10860E+01  0.00000E+00
  0.11388E+01  0.11398E+01  0.00000E+00
  0.11729E+01  0.11865E+01  0.00000E+00
  0.12176E+01  0.12234E+01  0.00000E+00
  0.12701E+01  0.12480E+01  0.00000E+00
  0.13271E+01  0.12588E+01  0.00000E+00
  0.13850E+01  0.12552E+01  0.00000E+00
  0.14402E+01  0.12373E+01  0.00000E+00
  0.14892E+01  0.12064E+01  0.00000E+00
  0.15290E+01  0.11642E+01  0.00000E+00
  0.15569E+01  0.11136E+01  0.00000E+00
  0.15713E+01  0.10576E+01  0.00000E+00
  0.15994E+01  0.10133E+01  0.00000E+00
  0.15863E+01  0.11089E+01  0.00000E+00
  0.25478E+01  0.10053E+00  0.00000E+00
  0.25434E+01  0.19142E+01  0.00000E+00
  0.11238E+01  0.89266E+00  0.00000E+00
  0.11061E+01  0.11423E+01  0.00000E+00
  0.15575E+01  0.89126E+00  0.00000E+00
  0.10894E+01  0.97917E+00  0.00000E+00
  0.15393E+01  0.11910E+01  0.00000E+00
  0.11627E+01  0.12175E+01  0.00000E+00
  0.14962E+01  0.82262E+00  0.00000E+00
  0.29512E+01  0.95010E-01  0.00000E+00
  0.29494E+01  0.19117E+01  0.00000E+00
  0.39186E+01  0.10466E+01  0.00000E+00
  0.11913E+01  0.82197E+00  0.00000E+00
  0.12788E+01  0.78594E+00  0.00000E+00
  0.21500E+01  0.86600E-01  0.00000E+00
  0.21472E+01  0.19005E+01  0.00000E+00
  0.14041E+01  0.78007E+00  0.00000E+00
  0.14641E+01  0.12550E+01  0.00000E+00
  0.13764E+01  0.12826E+01  0.00000E+00
  0.99450E-01  0.63780E+00  0.00000E+00
  0.92450E-01  0.13422E+01  0.00000E+00
  0.12473E+01  0.12677E+01  0.00000E+00
  0.65677E+00  0.19154E+01  0.00000E+00
  0.86110E-01  0.10467E+01  0.00000E+00
  0.75000E+00  0.86600E-01  0.00000E+00
  0.33379E+01  0.88030E-01  0.00000E+00
  0.33490E+01  0.19201E+01  0.00000E+00
  0.18500E+01  0.86600E-01  0.00000E+00
  0.18441E+01  0.19006E+01  0.00000E+00
  0.38922E+01  0.64055E+00  0.00000E+00
  0.39154E+01  0.13500E+01  0.00000E+00
  0.10564E+01  0.85180E-01  0.00000E+00
  0.94817E+00  0.19249E+01  0.00000E+00
  0.15421E+01  0.85450E-01  0.00000E+00
  0.15479E+01  0.19161E+01  0.00000E+00
  0.12386E+01  0.19130E+01  0.00000E+00
  0.45294E+00  0.85030E-01  0.00000E+00
  0.86890E-01  0.16531E+01  0.00000E+00
  0.36495E+01  0.78620E-01  0.00000E+00
  0.36510E+01  0.19107E+01  0.00000E+00
  0.10846E+01  0.10423E+01  0.00000E+00
  0.15860E+01  0.94842E+00  0.00000E+00
  0.13392E+01  0.77093E+00  0.00000E+00
  0.13108E+01  0.12864E+01  0.00000E+00
  0.87300E-01  0.35008E+00  0.00000E+00
  0.34468E+00  0.19176E+01  0.00000E+00
  0.39135E+01  0.16499E+01  0.00000E+00
  0.39252E+01  0.34254E+00  0.00000E+00
  0.13680E+01  0.88360E-01  0.00000E+00
  0.88350E-01  0.84594E+00  0.00000E+00
  0.23513E+01  0.77830E-01  0.00000E+00
  0.23488E+01  0.19154E+01  0.00000E+00
  0.27481E+01  0.80910E-01  0.00000E+00
  0.31480E+01  0.84140E-01  0.00000E+00
  0.31513E+01  0.19149E+01  0.00000E+00
  0.27502E+01  0.19198E+01  0.00000E+00
  0.39134E+01  0.85000E+00  0.00000E+00
  0.25071E+00  0.86200E-01  0.00000E+00
  0.91130E-01  0.18412E+01  0.00000E+00
  0.38461E+01  0.84360E-01  0.00000E+00
  0.38408E+01  0.19092E+01  0.00000E+00
  0.97440E-01  0.15849E+00  0.00000E+00
  0.15988E+01  0.10458E+01  0.00000E+00
  0.16261E+01  0.10305E+01  0.00000E+00
  0.16281E+01  0.99836E+00  0.00000E+00
  0.16554E+01  0.10148E+01  0.00000E+00
  0.16578E+01  0.98164E+00  0.00000E+00
  0.16863E+01  0.99914E+00  0.00000E+00
  0.16884E+01  0.96239E+00  0.00000E+00
  0.17222E+01  0.98417E+00  0.00000E+00
  0.17231E+01  0.93952E+00  0.00000E+00
  0.17605E+01  0.96435E+00  0.00000E+00
  0.17576E+01  0.10098E+01  0.00000E+00
  0.17991E+01  0.98970E+00  0.00000E+00
  0.17625E+01  0.91931E+00  0.00000E+00
[...]
 POINT_DATA         1724
  
 SCALARS WL      float 1
 LOOKUP_TABLE default
  0.21628E-01
  0.46885E-02
  0.24446E-03
  0.34373E-01
 -0.39322E-01
 -0.32631E-01
 -0.20118E-01
 -0.71747E-02
 -0.29452E-02
 -0.13240E-02
  0.92836E-03
 -0.50383E-02
 -0.31889E-03
  0.89718E-02
  0.25086E-01
  0.36680E-01
  0.43692E-01
  0.44079E-01
  0.37724E-01
  0.25873E-01
  0.73081E-02
 -0.14689E-01
 -0.38477E-01
 -0.61713E-01
 -0.66346E-01
 -0.51489E-01
 -0.47542E-01
 -0.44676E-01
 -0.41763E-01
  0.21387E-01
  0.20971E-01
  0.20400E-01
  0.19663E-01
  0.18704E-01
  0.17493E-01
  0.16041E-01
  0.14386E-01
  0.12397E-01
  0.10231E-01
  0.84691E-02
  0.69689E-02
  0.61378E-02
  0.64528E-02
  0.70625E-02
  0.79380E-02
  0.86940E-02
  0.92263E-02
  0.97707E-02
  0.10098E-01
  0.10458E-01
  0.10532E-01
  0.10459E-01
  0.98097E-02
  0.91297E-02
  0.83860E-02
  0.80235E-02
  0.81037E-02
  0.85614E-02
  0.97767E-02
  0.11315E-01
  0.12922E-01
  0.14551E-01
  0.15471E-01
  0.15939E-01
  0.15291E-01
  0.13670E-01
  0.11464E-01
  0.78639E-02
  0.00000E+00
  0.00000E+00
  0.00000E+00
  0.00000E+00
  0.00000E+00
  0.00000E+00
  0.00000E+00
  0.00000E+00
  0.00000E+00
  0.00000E+00
  0.00000E+00
  0.00000E+00
  0.00000E+00
  0.00000E+00
  0.00000E+00
  0.00000E+00
  0.00000E+00
  0.00000E+00
  0.00000E+00
  0.42999E-03
  0.14703E-02
  0.37421E-02
  0.62879E-02
  0.87023E-02
  0.10910E-01
  0.11949E-01
  0.11851E-01
  0.10604E-01
  0.86637E-02
  0.72182E-02
  0.71735E-02
  0.81846E-02
  0.97209E-02
  0.11299E-01
  0.12533E-01
  0.13248E-01
  0.13446E-01
  0.13205E-01
  0.12508E-01
  0.11616E-01
  0.10645E-01
  0.96943E-02
  0.91939E-02
  0.95077E-02
  0.10710E-01
  0.12717E-01
  0.15243E-01
  0.17983E-01
  0.20726E-01
  0.23351E-01
  0.25684E-01
  0.27781E-01
  0.29633E-01
  0.31333E-01
  0.32807E-01
  0.33891E-01
  0.34504E-01
  0.34616E-01
  0.34166E-01
  0.33662E-01
  0.32978E-01
  0.32037E-01
  0.31154E-01
  0.29979E-01
  0.28956E-01
  0.27959E-01
  0.27087E-01
  0.26287E-01
  0.25546E-01
  0.24865E-01
  0.24179E-01
  0.23585E-01
  0.23045E-01
  0.22577E-01
  0.22194E-01
  0.21907E-01
  0.21719E-01
 -0.37126E-01
 -0.26994E-01
 -0.12153E-01
 -0.37671E-02
 -0.29387E-02
  0.52665E-03
 -0.21801E-02
 -0.56068E-02
  0.24180E-02
  0.17529E-01
  0.31583E-01
  0.41447E-01
  0.44636E-01
  0.42169E-01
  0.32824E-01
  0.16954E-01
 -0.26530E-02
 -0.25842E-01
 -0.51437E-01
 -0.66775E-01
 -0.59994E-01
 -0.48155E-01
 -0.46255E-01
 -0.43070E-01
 -0.40561E-01
 -0.36708E-01
 -0.41547E-01
  0.89986E-02
  0.10735E-01
  0.29797E-01
  0.35317E-01
 -0.15322E-01
  0.42430E-01
 -0.46471E-01
  0.15410E-01
 -0.42015E-02
  0.98970E-02
  0.75854E-02
 -0.45134E-02
  0.77940E-02
 -0.42385E-02
  0.10256E-01
  0.13418E-01
 -0.27937E-03
 -0.54252E-01
 -0.59649E-01
  0.23714E-01
  0.29712E-01
 -0.15717E-01
  0.28712E-01
  0.26748E-01
  0.15325E-01
  0.15060E-01
  0.11523E-01
  0.92081E-02
  0.10750E-01
 -0.12985E-01
  0.40167E-02
  0.94331E-02
  0.22113E-01
  0.74769E-02
  0.88859E-02
  0.14056E-01
  0.19255E-01
  0.32884E-01
  0.14253E-01
  0.51684E-02
  0.44226E-01
 -0.28348E-01
  0.16203E-03
 -0.39284E-01
  0.22212E-01
  0.33431E-01
  0.23700E-02
  0.24957E-02
  0.65228E-02
  0.25182E-01
  0.10122E-01
  0.13048E-01
  0.83605E-02
  0.12520E-01
  0.11412E-01
  0.74215E-02
 -0.13916E-01
  0.20767E-01
  0.34191E-01
  0.97018E-02
  0.10983E-02
  0.21580E-01
 -0.38716E-01
 -0.36405E-01
 -0.34863E-01
 -0.35954E-01
 -0.33991E-01
 -0.35794E-01
 -0.32942E-01
 -0.34798E-01
 -0.30647E-01
 -0.32159E-01
 -0.35174E-01
 -0.31353E-01
 -0.27126E-01
 -0.32392E-01
 -0.27643E-01
 -0.26156E-01
 -0.21917E-01
 -0.18570E-01
 -0.15693E-01
 -0.19360E-01
 -0.14414E-01
 -0.19237E-01
 -0.16275E-01
 -0.21764E-01
 -0.20515E-01
 -0.25868E-01
 -0.24623E-01
 -0.10021E-01
 -0.29154E-01
 -0.25452E-01
 -0.19995E-01
 -0.18127E-01
 -0.27455E-01
 -0.11936E-01
 -0.92104E-02
 -0.11506E-01
 -0.42318E-02
 -0.34199E-02
  0.64192E-03
  0.16259E-03
  0.21986E-02
  0.43246E-02
  0.37877E-02
  0.13603E-02
  0.73565E-03
  0.50754E-02
  0.33328E-03
 -0.51424E-02
 -0.65484E-02
  0.10108E-02
 -0.52469E-02
  0.29429E-02
 -0.20695E-02
 -0.10206E-01
 -0.56593E-02
  0.95143E-03
 -0.12081E-01
 -0.65222E-02
 -0.96940E-02
 -0.22607E-01
 -0.49993E-02
 -0.49018E-02
 -0.10108E-01
 -0.29103E-01
 -0.24772E-01
 -0.23486E-01
 -0.18916E-01
 -0.14629E-01
 -0.10720E-01
 -0.22134E-02
 -0.30484E-02
 -0.22196E-03
 -0.52904E-02
 -0.10765E-01
 -0.47467E-02
 -0.22126E-02
  0.80472E-03
  0.43132E-02
  0.68807E-03
  0.34237E-02
  0.49119E-02
  0.71709E-02
 -0.23882E-01
  0.64280E-02
  0.75885E-02
  0.65712E-02
  0.70197E-02
  0.82986E-02
  0.69845E-02
  0.80366E-02
  0.63511E-02
  0.63014E-02
  0.58964E-02
 -0.58248E-02
  0.10073E-02
  0.21662E-02
  0.60757E-02
  0.76693E-02
  0.37267E-02
 -0.19552E-01
  0.63710E-02
  0.63284E-02
 -0.14886E-01
  0.52644E-02
  0.32036E-02
  0.60217E-02
  0.61694E-02
  0.80750E-02
  0.69047E-02
  0.72154E-02
  0.64410E-02
  0.77835E-02
  0.93573E-02
  0.10982E-01
  0.53818E-02
  0.69435E-02
  0.86133E-02
  0.90190E-02
  0.10031E-01
  0.99505E-02
  0.11065E-01
  0.11145E-01
  0.12350E-01
  0.12546E-01
  0.13832E-01
  0.14326E-01
  0.15684E-01
  0.14660E-01
  0.16461E-01
  0.17768E-01
  0.18379E-01
  0.20029E-01
  0.20264E-01
  0.22182E-01
  0.21995E-01
  0.24040E-01
  0.23428E-01
  0.25538E-01
  0.24635E-01
  0.26657E-01
  0.25568E-01
  0.27364E-01
  0.23855E-01
  0.26224E-01
  0.27802E-01
  0.26644E-01
  0.28054E-01
  0.29326E-01
  0.29328E-01
  0.30642E-01
  0.30412E-01
  0.31685E-01
  0.31229E-01
  0.32351E-01
  0.31752E-01
  0.32636E-01
  0.31972E-01
  0.32535E-01
  0.31894E-01
  0.32058E-01
  0.31554E-01
  0.31269E-01
  0.31495E-01
  0.30080E-01
  0.30995E-01
  0.30270E-01
  0.20228E-01
  0.27021E-01
  0.25638E-01
  0.30279E-01
  0.30963E-01
  0.29213E-01
  0.29019E-01
  0.27700E-01
  0.27196E-01
  0.25765E-01
  0.24760E-01
  0.23367E-01
  0.21674E-01
  0.26041E-01
  0.24772E-01
  0.15167E-01
  0.32268E-01
  0.30429E-01
  0.31108E-01
  0.28959E-01
  0.27830E-01
  0.33440E-01
  0.20582E-01
  0.18069E-01
  0.26580E-01
  0.30745E-01
  0.31382E-01
  0.25184E-01
  0.24126E-01
  0.10696E-01
  0.17473E-01
  0.14344E-01
  0.23083E-01
  0.24256E-01
  0.26346E-01
  0.31402E-01
  0.31646E-01
  0.31331E-01
 -0.37056E-01
  0.23562E-01
  0.23126E-01
  0.22393E-01
  0.22169E-01
  0.21307E-01
  0.67258E-02
  0.31205E-01
  0.21287E-01
  0.85055E-02
 -0.94630E-02
 -0.14325E-01
  0.19207E-01
  0.14339E-01
  0.99484E-02
  0.10718E-01
  0.57616E-02
  0.73825E-02
  0.23532E-02
  0.47334E-02
  0.73519E-04
 -0.34617E-02
 -0.63759E-02
 -0.10625E-02
 -0.57396E-02
 -0.12228E-01
 -0.10349E-01
 -0.42935E-02
 -0.75817E-02
 -0.22572E-02
 -0.39518E-02
 -0.98678E-02
 -0.49948E-02
 -0.10949E-01
 -0.55817E-02
 -0.60043E-03
 -0.54034E-03
  0.34527E-02
  0.41282E-02
  0.69830E-02
  0.78855E-02
  0.99240E-02
  0.11035E-01
  0.88737E-02
  0.11884E-01
  0.13193E-01
  0.14008E-01
  0.14560E-01
  0.15246E-01
  0.12569E-01
  0.27394E-03
  0.10618E-01
  0.11324E-01
  0.13162E-01
  0.15185E-01
  0.15500E-01
  0.24584E-01
  0.73641E-02
  0.20375E-01
  0.20296E-01
  0.86389E-02
  0.15129E-01
  0.14808E-01
  0.14601E-01
  0.12908E-01
  0.12860E-01
  0.10327E-01
 -0.17254E-01
 -0.17765E-01
  0.10322E-01
  0.71465E-02
 -0.10479E-04
  0.21085E-02
 -0.21902E-02
  0.30264E-01
  0.78243E-02
  0.76195E-02
 -0.18266E-01
 -0.34888E-02
  0.94464E-02
  0.12879E-01
  0.13812E-01
  0.15860E-01
  0.16165E-01
  0.17086E-01
  0.16921E-01
  0.15839E-01
  0.16340E-01
  0.14991E-01
  0.16939E-01
  0.15423E-01
  0.13867E-01
  0.12480E-01
  0.11095E-01
  0.88127E-02
  0.68847E-02
  0.95594E-02
  0.45567E-02
  0.12005E-02
  0.80909E-02
  0.23125E-02
  0.66260E-02
  0.19648E-02
  0.35407E-02
 -0.43037E-02
  0.12627E-01
 -0.31387E-02
  0.44235E-03
  0.22067E-01
  0.21347E-01
 -0.12795E-01
  0.56907E-03
  0.11266E-01
  0.12973E-01
  0.19841E-01
  0.12525E-01
  0.68994E-02
 -0.14453E-01
 -0.18357E-01
  0.62456E-02
  0.63888E-02
  0.14494E-01
  0.36460E-02
  0.30914E-01
  0.31779E-01
  0.68404E-02
  0.77856E-02
  0.19568E-02
  0.99902E-02
  0.10669E-03
 -0.57951E-02
 -0.24973E-01
 -0.25139E-01
 -0.71944E-02
  0.31554E-01
  0.30948E-01
 -0.32049E-02
 -0.12454E-01
  0.85141E-03
 -0.54081E-02
 -0.58826E-02
 -0.43442E-03
 -0.21588E-01
 -0.27307E-01
  0.28878E-03
  0.95083E-02
  0.97093E-02
 -0.43608E-02
  0.19458E-02
  0.19340E-01
  0.19062E-01
  0.82373E-02
  0.65618E-02
  0.13740E-01
  0.15897E-01
 -0.95136E-02
  0.13500E-04
 -0.51828E-02
  0.18681E-02
 -0.17808E-01
 -0.63276E-02
  0.62770E-02
  0.13826E-01
 -0.10545E-01
 -0.54810E-02
  0.93746E-02
  0.22048E-01
  0.10911E-01
 -0.27180E-01
  0.47731E-02
  0.21471E-01
  0.43033E-02
  0.30822E-01
  0.30194E-01
  0.30142E-01
  0.29343E-01
  0.29379E-01
  0.29330E-01
  0.28443E-01
  0.67818E-02
  0.29730E-01
 -0.29599E-02
  0.12429E-02
  0.14915E-01
  0.73371E-02
  0.71217E-02
  0.33514E-02
  0.70457E-02
 -0.22569E-01
  0.31651E-01
  0.32411E-01
  0.19581E-01
  0.17896E-01
  0.17663E-01
  0.22733E-01
 -0.32731E-01
 -0.32304E-01
  0.69568E-02
 -0.11373E-01
 -0.17575E-01
 -0.32558E-02
 -0.29574E-03
 -0.38202E-02
 -0.90439E-03
 -0.29474E-02
  0.74794E-03
  0.35542E-03
 -0.12010E-03
  0.18976E-01
  0.17444E-01
  0.16171E-01
  0.15776E-01
  0.14523E-01
  0.14034E-01
  0.62459E-02
 -0.26442E-01
  0.47316E-02
  0.31127E-01
  0.31842E-01
  0.13514E-01
 -0.17919E-01
  0.48366E-02
  0.81140E-02
  0.35191E-02
  0.57874E-02
  0.87437E-02
  0.87575E-02
  0.98696E-02
 -0.27439E-02
  0.14887E-01
  0.85892E-02
 -0.31022E-01
 -0.13180E-01
  0.10553E-01
  0.28434E-01
  0.27511E-01
  0.27602E-01
  0.26711E-01
 -0.11760E-01
  0.10180E-01
 -0.39359E-01
 -0.39024E-01
 -0.30836E-01
 -0.36638E-01
  0.22645E-01
  0.23352E-01
  0.67447E-02
 -0.17862E-01
 -0.22915E-01
  0.10126E-01
  0.58641E-02
  0.35251E-02
  0.72896E-02
  0.70481E-02
  0.80304E-02
  0.78863E-02
 -0.40090E-01
  0.31850E-01
  0.28971E-01
  0.28265E-01
  0.77985E-02
  0.88409E-02
  0.22797E-01
  0.91816E-02
  0.73996E-02
  0.10130E-01
 -0.70283E-02
 -0.60460E-02
  0.65159E-02
  0.70620E-02
  0.12822E-01
  0.13564E-01
 -0.25678E-01
 -0.34801E-01
 -0.36025E-01
 -0.20040E-01
 -0.13140E-01
 -0.77228E-02
  0.14527E-01
  0.11829E-01
  0.12949E-01
 -0.10132E-02
  0.62916E-02
  0.12855E-02
  0.31348E-01
  0.32174E-01
  0.98497E-02
  0.26499E-02
  0.30508E-02
  0.32297E-02
  0.98042E-02
  0.32416E-01
  0.33058E-01
  0.31431E-01
  0.10079E-01
  0.99088E-02
  0.11042E-01
  0.30187E-01
 -0.12576E-01
 -0.79349E-02
 -0.14724E-01
  0.30271E-01
  0.27349E-01
  0.26566E-01
  0.25404E-01
  0.26767E-02
  0.47552E-03
 -0.54785E-02
  0.10618E-01
  0.66942E-02
  0.22631E-02
  0.59043E-02
  0.15791E-02
 -0.33599E-01
 -0.40404E-01
 -0.39071E-01
  0.26547E-01
  0.25807E-01
  0.26089E-01
  0.25251E-01
  0.11028E-01
  0.20732E-01
  0.20994E-01
  0.48071E-02
  0.24598E-01
  0.23319E-01
  0.25976E-01
 -0.11070E-01
 -0.10449E-01
  0.88792E-02
  0.88132E-02
  0.77406E-02
  0.88080E-02
  0.17329E-01
  0.17025E-01
  0.19273E-01
  0.16715E-01
  0.18935E-01
 -0.98645E-02
  0.29199E-01
  0.16549E-01
  0.14199E-01
 -0.41346E-01
 -0.42900E-01
  0.14940E-02
  0.35335E-02
  0.31572E-01
  0.42201E-02
  0.13892E-01
 -0.26751E-01
 -0.30462E-01
 -0.43574E-01
 -0.32719E-01
 -0.22352E-01
 -0.22123E-01
 -0.67870E-02
 -0.17983E-02
  0.16881E-01
  0.15886E-01
  0.15737E-01
  0.14054E-01
  0.13831E-01
  0.11877E-01
  0.12091E-01
  0.76309E-02
  0.89254E-02
  0.96020E-02
  0.97249E-02
  0.24928E-01
  0.24435E-01
  0.68260E-02
  0.74161E-02
  0.72858E-02
 -0.77246E-02
  0.18917E-01
  0.14289E-02
 -0.62526E-02
  0.20246E-01
  0.62495E-02
  0.51655E-02
  0.86303E-02
  0.78376E-02
 -0.22753E-01
  0.75904E-03
  0.35373E-02
 -0.40135E-01
 -0.32001E-01
 -0.19726E-01
 -0.12394E-01
 -0.89478E-02
 -0.17091E-01
 -0.39927E-02
 -0.79893E-02
  0.19645E-02
 -0.73584E-04
  0.83433E-02
  0.78815E-02
  0.14895E-01
  0.13977E-01
  0.19198E-01
  0.21022E-01
  0.23686E-01
  0.25995E-01
  0.27272E-01
  0.29765E-01
  0.29033E-01
  0.32692E-01
  0.32163E-01
  0.34630E-01
  0.33522E-01
  0.35329E-01
  0.36839E-01
  0.36887E-01
  0.38741E-01
  0.37923E-01
  0.39883E-01
  0.38349E-01
  0.36677E-01
  0.36577E-01
  0.38154E-01
  0.35843E-01
  0.36625E-01
  0.34594E-01
  0.34856E-01
  0.36844E-01
  0.34503E-01
  0.32668E-01
  0.31726E-01
  0.36449E-01
  0.35244E-01
  0.30275E-01
  0.28804E-01
  0.29873E-01
  0.26419E-01
  0.25846E-01
  0.23161E-01
  0.38685E-01
  0.31659E-01
  0.34009E-01
  0.20950E-01
  0.18997E-01
  0.21008E-01
  0.17607E-01
  0.14585E-01
  0.14287E-01
  0.10661E-01
  0.11471E-01
  0.79101E-02
  0.94666E-02
  0.65884E-02
  0.83112E-02
  0.17796E-01
  0.32571E-01
  0.31167E-01
  0.23753E-01
  0.33957E-01
  0.32549E-01
  0.38823E-01
  0.35262E-01
  0.27629E-01
  0.96598E-02
  0.21618E-01
  0.21195E-01
 -0.54410E-02
  0.63477E-02
 -0.39540E-01
 -0.55886E-03
 -0.56262E-02
  0.91652E-02
 -0.44652E-01
  0.78745E-02
  0.79375E-02
  0.11732E-01
  0.13479E-01
  0.67110E-02
  0.24750E-02
  0.12959E-02
 -0.11119E-02
  0.12065E-01
 -0.10518E-02
  0.66285E-02
  0.38014E-01
  0.10387E-01
  0.15453E-01
  0.53478E-02
  0.22439E-02
  0.16342E-01
  0.35998E-02
 -0.54429E-03
 -0.33991E-02
 -0.38805E-01
  0.44063E-02
  0.34599E-01
  0.40372E-01
 -0.26611E-02
 -0.49269E-01
 -0.36238E-02
  0.23526E-01
  0.21100E-01
  0.80086E-02
  0.32441E-01
  0.10212E-01
  0.10581E-01
  0.11685E-01
 -0.20422E-01
 -0.23062E-01
 -0.22746E-01
  0.24040E-01
  0.28408E-01
 -0.49964E-01
  0.12239E-01
  0.32259E-01
 -0.14993E-01
 -0.18044E-01
 -0.20157E-02
  0.75358E-02
  0.36067E-02
  0.62875E-02
  0.27778E-01
  0.23180E-01
  0.22611E-01
  0.12800E-01
  0.12914E-01
  0.14591E-01
  0.14360E-01
  0.34156E-01
  0.11600E-01
  0.10979E-01
 -0.60542E-03
  0.25477E-01
  0.27853E-01
 -0.37861E-02
  0.92065E-02
  0.79785E-02
 -0.80758E-02
  0.29883E-02
  0.99114E-02
  0.10043E-01
 -0.20982E-01
 -0.17660E-01
 -0.45122E-01
 -0.41468E-01
  0.12469E-01
  0.11864E-01
  0.12821E-01
  0.32292E-01
  0.30774E-01
  0.32845E-01
  0.16247E-01
  0.11095E-01
  0.35432E-02
 -0.19659E-01
 -0.24253E-01
  0.12850E-01
  0.38417E-01
  0.32312E-01
  0.31047E-01
  0.10109E-01
 -0.52737E-01
  0.33230E-01
  0.12011E-01
  0.14716E-01
  0.12673E-01
  0.86323E-02
  0.16178E-01
  0.72438E-02
  0.75119E-02
  0.78561E-02
  0.19303E-01
  0.90524E-02
  0.12354E-01
  0.57281E-02
  0.36491E-02
  0.15363E-01
 -0.47434E-01
 -0.18927E-01
 -0.21137E-01
 -0.16405E-01
 -0.22027E-01
  0.64301E-02
 -0.60128E-02
  0.26562E-01
 -0.15486E-01
  0.95685E-02
  0.86721E-02
  0.10898E-01
  0.35918E-01
  0.57804E-02
  0.12731E-01
  0.24118E-01
 -0.70253E-02
 -0.11892E-01
  0.10421E-01
 -0.54712E-03
 -0.39805E-01
  0.30507E-01
  0.31280E-01
  0.40920E-01
  0.41832E-01
  0.40188E-01
  0.41597E-01
  0.39885E-01
 -0.35710E-03
  0.23134E-01
  0.58241E-02
  0.44020E-01
  0.71514E-02
  0.74661E-02
  0.22059E-01
  0.24180E-01
  0.36067E-02
 -0.76412E-03
  0.71103E-02
 -0.21575E-03
 -0.85548E-02
  0.97022E-02
  0.16444E-01
 -0.38989E-02
 -0.79769E-02
 -0.85885E-02
 -0.63672E-02
  0.16703E-01
  0.12147E-01
  0.10588E-01
  0.97360E-02
  0.28852E-01
  0.43070E-01
  0.64430E-02
  0.66930E-02
  0.64940E-02
  0.14032E-02
  0.53128E-02
  0.58783E-02
  0.15132E-01
 -0.18507E-02
 -0.26026E-01
  0.33942E-02
  0.17446E-02
 -0.36081E-02
 -0.49902E-01
 -0.32832E-01
 -0.38582E-01
  0.31788E-01
  0.31735E-01
  0.32868E-01
  0.41471E-02
 -0.33744E-01
 -0.29583E-01
 -0.20536E-02
 -0.16098E-01
  0.23845E-01
  0.24409E-01
  0.16697E-01
  0.33449E-01
 -0.10671E-01
 -0.15601E-01
 -0.16001E-01
  0.20306E-01
  0.20452E-01
  0.21736E-01
  0.19006E-01
  0.20739E-01
  0.21452E-01
  0.23500E-01
  0.24251E-01
  0.30872E-01
  0.31224E-01
  0.31310E-01
  0.31288E-01
  0.11069E-01
  0.29397E-01
  0.28499E-01
  0.30366E-01
  0.30892E-01
  0.27475E-01
  0.29644E-01
  0.28716E-01
 -0.13984E-01
  0.13476E-01
  0.13563E-01
  0.12877E-01
  0.13729E-01
  0.14026E-01
  0.12819E-01
  0.14605E-01
  0.14272E-01
  0.13852E-01
  0.11849E-01
  0.11469E-01
  0.51184E-02
  0.25927E-01
  0.26406E-01
  0.27424E-01
  0.27636E-01
  0.28470E-01
  0.28462E-01
  0.28746E-01
 -0.70301E-02
 -0.10740E-01
  0.68430E-02
  0.26419E-01
  0.28695E-01
  0.29158E-01
 -0.20188E-01
 -0.15385E-01
  0.15102E-02
 -0.50218E-02
  0.23391E-01
  0.27489E-01
  0.27580E-01
  0.22154E-01
  0.95243E-02
  0.11395E-01
  0.11724E-01
  0.95616E-02
  0.92211E-02
  0.71431E-02
  0.59610E-02
  0.41825E-02
  0.59327E-02
  0.88449E-02
  0.96501E-02
  0.29762E-01
  0.89926E-02
  0.75926E-02
  0.82783E-02
  0.62785E-02
  0.72561E-02
  0.91883E-02
  0.84317E-02
  0.58489E-02
 -0.16698E-01
  0.24565E-01
  0.26784E-01
  0.28017E-01
  0.86371E-02
  0.11934E-01
  0.11088E-01
  0.12190E-01
  0.11203E-01
  0.12504E-01
  0.11223E-01
  0.94640E-02
  0.13058E-01
  0.12775E-01
  0.16888E-01
  0.16521E-01
  0.17816E-01
  0.16438E-01
  0.17676E-01
  0.18186E-01
  0.18941E-01
 -0.31873E-02
  0.24288E-01
 -0.44548E-01
  0.11969E-02
  0.78767E-02
 -0.11686E-01
  0.84230E-02
  0.89973E-02
  0.79675E-02
  0.76743E-02
  0.97874E-02
  0.90687E-02
  0.29711E-01
 -0.30767E-01
  0.18081E-02
  0.34547E-01
  0.63202E-02
  0.40358E-02
  0.13702E-01
  0.18889E-01
  0.97269E-02
  0.13550E-01
  0.35045E-02
  0.88049E-02
  0.70460E-02
  0.64044E-02
  0.12825E-01
  0.11370E-01
 -0.15772E-01
 -0.65075E-02
 -0.35432E-02
 -0.36289E-02
 -0.33684E-01
  0.96804E-02
  0.52149E-02
  0.14020E-01
  0.14591E-01
  0.13008E-01
  0.14356E-01
  0.13291E-01
  0.14222E-01
  0.14384E-01
  0.14169E-01
  0.14541E-01
  0.14231E-01
  0.12888E-01
  0.20113E-01
  0.20643E-01
  0.11715E-01
  0.93124E-02
 -0.27338E-01
  0.98107E-02
  0.10875E-01
  0.34203E-01
  0.33762E-01
  0.34235E-01
  0.33688E-01
  0.33846E-01
  0.94738E-02
  0.11051E-01
  0.12092E-01
  0.79750E-02
  0.98770E-02
  0.24507E-02
  0.21863E-01
  0.11979E-01
  0.13787E-01
 -0.40139E-02
 -0.92929E-02
 -0.13050E-01
  0.23838E-02
  0.41626E-02
  0.59974E-02
  0.33885E-02
  0.44990E-02
  0.31791E-02
  0.52012E-02
  0.40896E-02
  0.19803E-02
  0.31883E-02
  0.55930E-02
  0.75919E-02
  0.78587E-02
  0.96537E-02
  0.97559E-02
  0.15428E-01
  0.12294E-01
  0.10121E-01
  0.64746E-02
  0.67630E-02
 -0.16375E-01
  0.14261E-02
  0.21155E-02
 -0.20430E-01
 -0.13930E-01
  0.87878E-02
  0.80670E-03
  0.85328E-02
  0.65826E-02
 -0.65142E-02
  0.32892E-01
 -0.60974E-02
 -0.19073E-01
 -0.23545E-02
  0.64878E-02
  0.19031E-01
  0.35273E-01
  0.11635E-01
  0.10438E-01
 -0.10178E-01
  0.15282E-01
  0.52090E-02
 -0.21440E-01
 -0.18507E-02
  0.41659E-02
  0.94897E-02
  0.12156E-01
  0.11429E-02
  0.12738E-01
 -0.19924E-01
 -0.41314E-01
 -0.43706E-01
  0.63427E-02
 -0.34227E-02
  0.33816E-01
  0.14830E-01
  0.89377E-02
 -0.20161E-02
  0.25596E-01
  0.33964E-01
  0.22872E-01
 -0.38039E-01
  0.96502E-02
  0.12240E-01
  0.14078E-01
 -0.13569E-01
  0.31228E-02
  0.16604E-01
  0.68145E-02
 -0.37133E-01
  0.51913E-02
  0.16549E-01
  0.31870E-02
  0.41093E-01
  0.10463E-01
 -0.23517E-01
  0.22629E-01
 -0.20528E-02
  0.14842E-01
  0.12437E-01
  0.15951E-01
  0.41614E-02
  0.10949E-01
 -0.95001E-02
  0.26842E-02
  0.96318E-02
  0.29582E-01
 -0.40156E-04
  0.19739E-02
  0.32156E-01
 -0.23541E-01
 -0.26674E-01
  0.17581E-02
  0.22084E-01
 -0.61444E-01
 -0.61792E-01
  0.55095E-02
  0.21736E-01
 -0.11668E-01
 -0.22802E-01
 -0.45058E-01
  0.11507E-01
  0.10343E-01
  0.30273E-01
  0.17118E-01
  0.38333E-02
 -0.14862E-01
  0.16867E-01
  0.14162E-01
  0.38679E-02
  0.13737E-01
  0.31775E-01
  0.82799E-02
  0.20867E-01
  0.31317E-01
  0.97911E-02
  0.56725E-02
  0.18986E-01
 -0.44491E-01
 -0.17946E-01
  0.96641E-02
 -0.16918E-01
  0.30584E-01
  0.78359E-02
  0.96950E-02
  0.15322E-01
  0.20545E-01
  0.57755E-02
  0.26411E-01
  0.22658E-01
  0.72189E-02
  0.21153E-01
  0.79722E-02
  0.15559E-01
 -0.44261E-02
  0.82348E-02
  0.26475E-01
  0.11063E-01
 -0.45990E-01
  0.15125E-01
  0.29155E-01
  0.54125E-02
 -0.32466E-01
  0.34535E-01
  0.13039E-01
  0.74788E-02
  0.72365E-02
  0.31229E-01
 -0.59906E-02
  0.21235E-01
  0.28088E-01
  0.70864E-03
  0.19939E-01
  0.25586E-01
  0.19287E-01
  0.36261E-01
  0.32875E-01
  0.24692E-01
 -0.92631E-02
  0.23152E-01
  0.76050E-02
 -0.19939E-02
 -0.22686E-01