# vtk DataFile Version 2.0
Unstructured Grid UFVM-ECOMOD
ASCII
DATASET UNSTRUCTURED_GRID
 POINTS         1724  float
  0.00000E+00  0.00000E+00  0.00000E+00
  0.40000E+01  0.00000E+00  0.00000E+00
  0.40000E+01  0.20000E+01  0.00000E+00
  0.00000E+00  0.20000E+01  0.00000E+00
  0.15750E+01  0.10287E+01  0.00000E+00
  0.15677E+01  0.97091E+00  0.00000E+00
  0.15461E+01  0.91674E+00  0.00000E+00
  0.15118E+01  0.86961E+00  0.00000E+00
  0.14667E+01  0.83248E+00  0.00000E+00
  0.14138E+01  0.80767E+00  0.00000E+00
  0.13563E+01  0.79675E+00  0.00000E+00
  0.12979E+01  0.80041E+00  0.00000E+00
  0.12423E+01  0.81842E+00  0.00000E+00
  0.11929E+01  0.84963E+00  0.00000E+00
  0.11529E+01  0.89210E+00  0.00000E+00
  0.11247E+01  0.94315E+00  0.00000E+00
  0.11102E+01  0.99958E+00  0.00000E+00
  0.11102E+01  0.10578E+01  0.00000E+00
  0.11247E+01  0.11143E+01  0.00000E+00
  0.11529E+01  0.11653E+01  0.00000E+00
  0.11929E+01  0.12078E+01  0.00000E+00
  0.12423E+01  0.12390E+01  0.00000E+00
  0.12979E+01  0.12570E+01  0.00000E+00
  0.13563E+01  0.12607E+01  0.00000E+00
  0.14138E+01  0.12497E+01  0.00000E+00
  0.14667E+01  0.12249E+01  0.00000E+00
  0.15118E+01  0.11878E+01  0.00000E+00
  0.15461E+01  0.11407E+01  0.00000E+00
  0.15677E+01  0.10865E+01  0.00000E+00
  0.10000E+00  0.00000E+00  0.00000E+00
  0.20000E+00  0.00000E+00  0.00000E+00
  0.30000E+00  0.00000E+00  0.00000E+00
  0.40000E+00  0.00000E+00  0.00000E+00
  0.50000E+00  0.00000E+00  0.00000E+00
  0.60000E+00  0.00000E+00  0.00000E+00
  0.70000E+00  0.00000E+00  0.00000E+00
  0.80000E+00  0.00000E+00  0.00000E+00
  0.90000E+00  0.00000E+00  0.00000E+00
  0.10000E+01  0.00000E+00  0.00000E+00
  0.11000E+01  0.00000E+00  0.00000E+00
  0.12000E+01  0.00000E+00  0.00000E+00
  0.13000E+01  0.00000E+00  0.00000E+00
  0.14000E+01  0.00000E+00  0.00000E+00
  0.15000E+01  0.00000E+00  0.00000E+00
  0.16000E+01  0.00000E+00  0.00000E+00
  0.17000E+01  0.00000E+00  0.00000E+00
  0.18000E+01  0.00000E+00  0.00000E+00
  0.19000E+01  0.00000E+00  0.00000E+00
  0.20000E+01  0.00000E+00  0.00000E+00
  0.21000E+01  0.00000E+00  0.00000E+00
  0.22000E+01  0.00000E+00  0.00000E+00
  0.23000E+01  0.00000E+00  0.00000E+00
  0.24000E+01  0.00000E+00  0.00000E+00
  0.25000E+01  0.00000E+00  0.00000E+00
  0.26000E+01  0.00000E+00  0.00000E+00
  0.27000E+01  0.00000E+00  0.00000E+00
  0.28000E+01  0.00000E+00  0.00000E+00
  0.29000E+01  0.00000E+00  0.00000E+00
  0.30000E+01  0.00000E+00  0.00000E+00
  0.31000E+01  0.00000E+00  0.00000E+00
  0.32000E+01  0.00000E+00  0.00000E+00
  0.33000E+01  0.00000E+00  0.00000E+00
  0.34000E+01  0.00000E+00  0.00000E+00
  0.35000E+01  0.00000E+00  0.00000E+00
  0.36000E+01  0.00000E+00  0.00000E+00
  0.37000E+01  0.00000E+00  0.00000E+00
  0.38000E+01  0.00000E+00  0.00000E+00
  0.39000E+01  0.00000E+00  0.00000E+00
  0.40000E+01  0.10000E+00  0.00000E+00
  0.40000E+01  0.20000E+00  0.00000E+00
  0.40000E+01  0.30000E+00  0.00000E+00
  0.40000E+01  0.40000E+00  0.00000E+00
  0.40000E+01  0.50000E+00  0.00000E+00
  0.40000E+01  0.60000E+00  0.00000E+00
  0.40000E+01  0.70000E+00  0.00000E+00
  0.40000E+01  0.80000E+00  0.00000E+00
  0.40000E+01  0.90000E+00  0.00000E+00
  0.40000E+01  0.10000E+01  0.00000E+00
  0.40000E+01  0.11000E+01  0.00000E+00
  0.40000E+01  0.12000E+01  0.00000E+00
  0.40000E+01  0.13000E+01  0.00000E+00
  0.40000E+01  0.14000E+01  0.00000E+00
  0.40000E+01  0.15000E+01  0.00000E+00
  0.40000E+01  0.16000E+01  0.00000E+00
  0.40000E+01  0.17000E+01  0.00000E+00
  0.40000E+01  0.18000E+01  0.00000E+00
  0.40000E+01  0.19000E+01  0.00000E+00
  0.39000E+01  0.20000E+01  0.00000E+00
  0.38000E+01  0.20000E+01  0.00000E+00
  0.37000E+01  0.20000E+01  0.00000E+00
  0.36000E+01  0.20000E+01  0.00000E+00
  0.35000E+01  0.20000E+01  0.00000E+00
  0.34000E+01  0.20000E+01  0.00000E+00
  0.33000E+01  0.20000E+01  0.00000E+00
  0.32000E+01  0.20000E+01  0.00000E+00
  0.31000E+01  0.20000E+01  0.00000E+00
  0.30000E+01  0.20000E+01  0.00000E+00
  0.29000E+01  0.20000E+01  0.00000E+00
  0.28000E+01  0.20000E+01  0.00000E+00
  0.27000E+01  0.20000E+01  0.00000E+00
  0.26000E+01  0.20000E+01  0.00000E+00
  0.25000E+01  0.20000E+01  0.00000E+00
  0.24000E+01  0.20000E+01  0.00000E+00
  0.23000E+01  0.20000E+01  0.00000E+00
  0.22000E+01  0.20000E+01  0.00000E+00
  0.21000E+01  0.20000E+01  0.00000E+00
  0.20000E+01  0.20000E+01  0.00000E+00
  0.19000E+01  0.20000E+01  0.00000E+00
  0.18000E+01  0.20000E+01  0.00000E+00
  0.17000E+01  0.20000E+01  0.00000E+00
  0.16000E+01  0.20000E+01  0.00000E+00
  0.15000E+01  0.20000E+01  0.00000E+00
  0.14000E+01  0.20000E+01  0.00000E+00
  0.13000E+01  0.20000E+01  0.00000E+00
  0.12000E+01  0.20000E+01  0.00000E+00
  0.11000E+01  0.20000E+01  0.00000E+00
  0.10000E+01  0.20000E+01  0.00000E+00
  0.90000E+00  0.20000E+01  0.00000E+00
  0.80000E+00  0.20000E+01  0.00000E+00
  0.70000E+00  0.20000E+01  0.00000E+00
  0.60000E+00  0.20000E+01  0.00000E+00
  0.50000E+00  0.20000E+01  0.00000E+00
  0.40000E+00  0.20000E+01  0.00000E+00
  0.30000E+00  0.20000E+01  0.00000E+00
  0.20000E+00  0.20000E+01  0.00000E+00
  0.10000E+00  0.20000E+01  0.00000E+00
  0.00000E+00  0.19000E+01  0.00000E+00
  0.00000E+00  0.18000E+01  0.00000E+00
  0.00000E+00  0.17000E+01  0.00000E+00
  0.00000E+00  0.16000E+01  0.00000E+00
  0.00000E+00  0.15000E+01  0.00000E+00
  0.00000E+00  0.14000E+01  0.00000E+00
  0.00000E+00  0.13000E+01  0.00000E+00
  0.00000E+00  0.12000E+01  0.00000E+00
  0.00000E+00  0.11000E+01  0.00000E+00
  0.00000E+00  0.10000E+01  0.00000E+00
  0.00000E+00  0.90000E+00  0.00000E+00
  0.00000E+00  0.80000E+00  0.00000E+00
  0.00000E+00  0.70000E+00  0.00000E+00
  0.00000E+00  0.60000E+00  0.00000E+00
  0.00000E+00  0.50000E+00  0.00000E+00
  0.00000E+00  0.40000E+00  0.00000E+00
  0.00000E+00  0.30000E+00  0.00000E+00
  0.00000E+00  0.20000E+00  0.00000E+00
  0.00000E+00  0.10000E+00  0.00000E+00
  0.15713E+01  0.99981E+00  0.00000E+00
  0.15569E+01  0.94382E+00  0.00000E+00
  0.15290E+01  0.89318E+00  0.00000E+00
  0.14892E+01  0.85104E+00  0.00000E+00
  0.14402E+01  0.82007E+00  0.00000E+00
  0.13850E+01  0.80221E+00  0.00000E+00
  0.13271E+01  0.79858E+00  0.00000E+00
  0.12701E+01  0.80941E+00  0.00000E+00
  0.12176E+01  0.83402E+00  0.00000E+00
  0.11729E+01  0.87086E+00  0.00000E+00
  0.11388E+01  0.91762E+00  0.00000E+00
  0.11175E+01  0.97136E+00  0.00000E+00
  0.11102E+01  0.10287E+01  0.00000E+00
  0.11175E+01  0.10860E+01  0.00000E+00
  0.11388E+01  0.11398E+01  0.00000E+00
  0.11729E+01  0.11865E+01  0.00000E+00
  0.12176E+01  0.12234E+01  0.00000E+00
  0.12701E+01  0.12480E+01  0.00000E+00
  0.13271E+01  0.12588E+01  0.00000E+00
  0.13850E+01  0.12552E+01  0.00000E+00
  0.14402E+01  0.12373E+01  0.00000E+00
  0.14892E+01  0.12064E+01  0.00000E+00
  0.15290E+01  0.11642E+01  0.00000E+00
  0.15569E+01  0.11136E+01  0.00000E+00
  0.15713E+01  0.10576E+01  0.00000E+00
  0.15994E+01  0.10133E+01  0.00000E+00
  0.15863E+01  0.11089E+01  0.00000E+00
  0.25478E+01  0.10053E+00  0.00000E+00
  0.25434E+01  0.19142E+01  0.00000E+00
  0.11238E+01  0.89266E+00  0.00000E+00
  0.11061E+01  0.11423E+01  0.00000E+00
  0.15575E+01  0.89126E+00  0.00000E+00
  0.10894E+01  0.97917E+00  0.00000E+00
  0.15393E+01  0.11910E+01  0.00000E+00
  0.11627E+01  0.12175E+01  0.00000E+00
  0.14962E+01  0.82262E+00  0.00000E+00
  0.29512E+01  0.95010E-01  0.00000E+00
  0.29494E+01  0.19117E+01  0.00000E+00
  0.39186E+01  0.10466E+01  0.00000E+00
  0.11913E+01  0.82197E+00  0.00000E+00
  0.12788E+01  0.78594E+00  0.00000E+00
  0.21500E+01  0.86600E-01  0.00000E+00
  0.21472E+01  0.19005E+01  0.00000E+00
  0.14041E+01  0.78007E+00  0.00000E+00
  0.14641E+01  0.12550E+01  0.00000E+00
  0.13764E+01  0.12826E+01  0.00000E+00
  0.99450E-01  0.63780E+00  0.00000E+00
  0.92450E-01  0.13422E+01  0.00000E+00
  0.12473E+01  0.12677E+01  0.00000E+00
  0.65677E+00  0.19154E+01  0.00000E+00
  0.86110E-01  0.10467E+01  0.00000E+00
  0.75000E+00  0.86600E-01  0.00000E+00
  0.33379E+01  0.88030E-01  0.00000E+00
  0.33490E+01  0.19201E+01  0.00000E+00
  0.18500E+01  0.86600E-01  0.00000E+00
  0.18441E+01  0.19006E+01  0.00000E+00
  0.38922E+01  0.64055E+00  0.00000E+00
  0.39154E+01  0.13500E+01  0.00000E+00
  0.10564E+01  0.85180E-01  0.00000E+00
  0.94817E+00  0.19249E+01  0.00000E+00
  0.15421E+01  0.85450E-01  0.00000E+00
  0.15479E+01  0.19161E+01  0.00000E+00
  0.12386E+01  0.19130E+01  0.00000E+00
  0.45294E+00  0.85030E-01  0.00000E+00
  0.86890E-01  0.16531E+01  0.00000E+00
  0.36495E+01  0.78620E-01  0.00000E+00
  0.36510E+01  0.19107E+01  0.00000E+00
  0.10846E+01  0.10423E+01  0.00000E+00
  0.15860E+01  0.94842E+00  0.00000E+00
  0.13392E+01  0.77093E+00  0.00000E+00
  0.13108E+01  0.12864E+01  0.00000E+00
  0.87300E-01  0.35008E+00  0.00000E+00
  0.34468E+00  0.19176E+01  0.00000E+00
  0.39135E+01  0.16499E+01  0.00000E+00
  0.39252E+01  0.34254E+00  0.00000E+00
  0.13680E+01  0.88360E-01  0.00000E+00
  0.88350E-01  0.84594E+00  0.00000E+00
  0.23513E+01  0.77830E-01  0.00000E+00
  0.23488E+01  0.19154E+01  0.00000E+00
  0.27481E+01  0.80910E-01  0.00000E+00
  0.31480E+01  0.84140E-01  0.00000E+00
  0.31513E+01  0.19149E+01  0.00000E+00
  0.27502E+01  0.19198E+01  0.00000E+00
  0.39134E+01  0.85000E+00  0.00000E+00
  0.25071E+00  0.86200E-01  0.00000E+00
  0.91130E-01  0.18412E+01  0.00000E+00
  0.38461E+01  0.84360E-01  0.00000E+00
  0.38408E+01  0.19092E+01  0.00000E+00
  0.97440E-01  0.15849E+00  0.00000E+00
  0.15988E+01  0.10458E+01  0.00000E+00
  0.16261E+01  0.10305E+01  0.00000E+00
  0.16281E+01  0.99836E+00  0.00000E+00
  0.16554E+01  0.10148E+01  0.00000E+00
  0.16578E+01  0.98164E+00  0.00000E+00
  0.16863E+01  0.99914E+00  0.00000E+00
  0.16884E+01  0.96239E+00  0.00000E+00
  0.17222E+01  0.98417E+00  0.00000E+00
  0.17231E+01  0.93952E+00  0.00000E+00
  0.17605E+01  0.96435E+00  0.00000E+00
  0.17576E+01  0.10098E+01  0.00000E+00
  0.17991E+01  0.98970E+00  0.00000E+00
  0.17625E+01  0.91931E+00  0.00000E+00
[...]
 POINT_DATA         1724
  
 SCALARS WL      float 1
 LOOKUP_TABLE default
  0.21563E-01
  0.52732E-02
  0.98727E-04
  0.34504E-01
 -0.39814E-01
 -0.33014E-01
 -0.20128E-01
 -0.73435E-02
 -0.36075E-02
 -0.17544E-02
  0.45333E-03
 -0.51391E-02
 -0.10758E-03
  0.92339E-02
  0.25253E-01
  0.36777E-01
  0.43749E-01
  0.44108E-01
  0.37715E-01
  0.25804E-01
  0.71438E-02
 -0.14978E-01
 -0.38933E-01
 -0.62392E-01
 -0.66418E-01
 -0.50510E-01
 -0.47006E-01
 -0.44416E-01
 -0.41976E-01
  0.21328E-01
  0.20916E-01
  0.20345E-01
  0.19609E-01
  0.18654E-01
  0.17455E-01
  0.16026E-01
  0.14411E-01
  0.12489E-01
  0.10430E-01
  0.88063E-02
  0.74871E-02
  0.68742E-02
  0.73716E-02
  0.80660E-02
  0.89468E-02
  0.96521E-02
  0.10118E-01
  0.10591E-01
  0.10822E-01
  0.11087E-01
  0.11071E-01
  0.10921E-01
  0.10246E-01
  0.96109E-02
  0.89846E-02
  0.88026E-02
  0.91136E-02
  0.98276E-02
  0.11306E-01
  0.13063E-01
  0.14816E-01
  0.16505E-01
  0.17392E-01
  0.17786E-01
  0.17008E-01
  0.15222E-01
  0.12780E-01
  0.87860E-02
  0.00000E+00
  0.00000E+00
  0.00000E+00
  0.00000E+00
  0.00000E+00
  0.00000E+00
  0.00000E+00
  0.00000E+00
  0.00000E+00
  0.00000E+00
  0.00000E+00
  0.00000E+00
  0.00000E+00
  0.00000E+00
  0.00000E+00
  0.00000E+00
  0.00000E+00
  0.00000E+00
  0.00000E+00
  0.14858E-03
  0.96743E-03
  0.30816E-02
  0.55479E-02
  0.79453E-02
  0.10188E-01
  0.11300E-01
  0.11295E-01
  0.10146E-01
  0.82550E-02
  0.67980E-02
  0.66834E-02
  0.75893E-02
  0.89854E-02
  0.10467E-01
  0.11667E-01
  0.12399E-01
  0.12638E-01
  0.12439E-01
  0.11771E-01
  0.10913E-01
  0.99987E-02
  0.91214E-02
  0.87042E-02
  0.91003E-02
  0.10372E-01
  0.12424E-01
  0.14970E-01
  0.17712E-01
  0.20446E-01
  0.23060E-01
  0.25382E-01
  0.27477E-01
  0.29334E-01
  0.31053E-01
  0.32571E-01
  0.33728E-01
  0.34441E-01
  0.34667E-01
  0.34315E-01
  0.33838E-01
  0.33178E-01
  0.32258E-01
  0.31374E-01
  0.30184E-01
  0.29131E-01
  0.28094E-01
  0.27181E-01
  0.26344E-01
  0.25572E-01
  0.24867E-01
  0.24161E-01
  0.23553E-01
  0.23002E-01
  0.22525E-01
  0.22137E-01
  0.21845E-01
  0.21655E-01
 -0.37684E-01
 -0.27224E-01
 -0.12102E-01
 -0.42556E-02
 -0.35130E-02
  0.17360E-04
 -0.25106E-02
 -0.55147E-02
  0.27014E-02
  0.17743E-01
  0.31711E-01
  0.41519E-01
  0.44679E-01
  0.42181E-01
  0.32788E-01
  0.16841E-01
 -0.28752E-02
 -0.26211E-01
 -0.52022E-01
 -0.67395E-01
 -0.59293E-01
 -0.47456E-01
 -0.45702E-01
 -0.43074E-01
 -0.40949E-01
 -0.37125E-01
 -0.41590E-01
  0.95629E-02
  0.99437E-02
  0.29940E-01
  0.35293E-01
 -0.15280E-01
  0.42496E-01
 -0.45786E-01
  0.15277E-01
 -0.47927E-02
  0.11241E-01
  0.71507E-02
 -0.39066E-02
  0.80595E-02
 -0.42153E-02
  0.10872E-01
  0.12630E-01
 -0.73151E-03
 -0.53477E-01
 -0.60306E-01
  0.23695E-01
  0.29908E-01
 -0.16029E-01
  0.28410E-01
  0.26836E-01
  0.15331E-01
  0.16829E-01
  0.10830E-01
  0.10046E-01
  0.10082E-01
 -0.13478E-01
  0.41704E-02
  0.97110E-02
  0.21828E-01
  0.84326E-02
  0.84369E-02
  0.13776E-01
  0.19203E-01
  0.33055E-01
  0.15749E-01
  0.44698E-02
  0.44263E-01
 -0.28589E-01
 -0.21404E-03
 -0.39774E-01
  0.22162E-01
  0.33238E-01
  0.21677E-02
  0.23815E-02
  0.73507E-02
  0.25206E-01
  0.10589E-01
  0.12191E-01
  0.92502E-02
  0.14232E-01
  0.10895E-01
  0.68899E-02
 -0.13485E-01
  0.20713E-01
  0.34286E-01
  0.10723E-01
  0.69502E-03
  0.21522E-01
 -0.39077E-01
 -0.36600E-01
 -0.35131E-01
 -0.36086E-01
 -0.34172E-01
 -0.35897E-01
 -0.33110E-01
 -0.34938E-01
 -0.30861E-01
 -0.32372E-01
 -0.35364E-01
 -0.31584E-01
 -0.27385E-01
 -0.32660E-01
 -0.27867E-01
 -0.26421E-01
 -0.22065E-01
 -0.18762E-01
 -0.15754E-01
 -0.19333E-01
 -0.14278E-01
 -0.18940E-01
 -0.15854E-01
 -0.21151E-01
 -0.19876E-01
 -0.25020E-01
 -0.24108E-01
 -0.10048E-01
 -0.28660E-01
 -0.25652E-01
 -0.19868E-01
 -0.18710E-01
 -0.26514E-01
 -0.12184E-01
 -0.98473E-02
 -0.12526E-01
 -0.49467E-02
 -0.43004E-02
  0.12491E-03
 -0.20482E-03
  0.19600E-02
  0.40206E-02
  0.36644E-02
  0.13814E-02
  0.87085E-03
  0.50458E-02
  0.47026E-03
 -0.47115E-02
 -0.63784E-02
  0.10240E-02
 -0.54364E-02
  0.27799E-02
 -0.25131E-02
 -0.10784E-01
 -0.64369E-02
  0.46262E-03
 -0.13135E-01
 -0.75615E-02
 -0.11086E-01
 -0.22891E-01
 -0.60878E-02
 -0.62236E-02
 -0.11637E-01
 -0.28959E-01
 -0.23888E-01
 -0.23737E-01
 -0.18317E-01
 -0.15041E-01
 -0.10509E-01
 -0.31343E-02
 -0.37521E-02
 -0.12723E-02
 -0.55045E-02
 -0.96481E-02
 -0.40538E-02
 -0.88662E-03
  0.17730E-02
  0.56974E-02
 -0.27912E-04
  0.26463E-02
  0.59563E-02
  0.82581E-02
 -0.24188E-01
  0.72961E-02
  0.82859E-02
  0.72665E-02
  0.75299E-02
  0.87666E-02
  0.72652E-02
  0.82014E-02
  0.63853E-02
  0.64851E-02
  0.59039E-02
 -0.64270E-02
  0.91710E-03
  0.19459E-02
  0.62717E-02
  0.78320E-02
  0.45881E-02
 -0.19885E-01
  0.65289E-02
  0.63718E-02
 -0.15305E-01
  0.50905E-02
  0.26721E-02
  0.54291E-02
  0.53945E-02
  0.74465E-02
  0.70997E-02
  0.73286E-02
  0.64182E-02
  0.78590E-02
  0.97871E-02
  0.11392E-01
  0.57253E-02
  0.69040E-02
  0.86917E-02
  0.92071E-02
  0.10239E-01
  0.10262E-01
  0.11391E-01
  0.11392E-01
  0.12694E-01
  0.12835E-01
  0.14189E-01
  0.14645E-01
  0.16035E-01
  0.15039E-01
  0.16808E-01
  0.18095E-01
  0.18686E-01
  0.20320E-01
  0.20529E-01
  0.22434E-01
  0.22222E-01
  0.24258E-01
  0.23624E-01
  0.25728E-01
  0.24805E-01
  0.26825E-01
  0.25720E-01
  0.27517E-01
  0.23999E-01
  0.26363E-01
  0.27945E-01
  0.26776E-01
  0.28192E-01
  0.29466E-01
  0.29464E-01
  0.30771E-01
  0.30538E-01
  0.31795E-01
  0.31335E-01
  0.32434E-01
  0.31830E-01
  0.32683E-01
  0.32012E-01
  0.32541E-01
  0.31891E-01
  0.32016E-01
  0.31501E-01
  0.31176E-01
  0.31532E-01
  0.30206E-01
  0.30889E-01
  0.30126E-01
  0.20455E-01
  0.27150E-01
  0.25752E-01
  0.30122E-01
  0.30850E-01
  0.29025E-01
  0.28847E-01
  0.27491E-01
  0.27002E-01
  0.25541E-01
  0.24547E-01
  0.23131E-01
  0.21444E-01
  0.26153E-01
  0.24863E-01
  0.15524E-01
  0.32383E-01
  0.30262E-01
  0.30994E-01
  0.28806E-01
  0.28007E-01
  0.33457E-01
  0.20334E-01
  0.17821E-01
  0.26345E-01
  0.30572E-01
  0.31270E-01
  0.25271E-01
  0.24189E-01
  0.11117E-01
  0.17212E-01
  0.14076E-01
  0.22880E-01
  0.24490E-01
  0.26459E-01
  0.31358E-01
  0.31610E-01
  0.31361E-01
 -0.37111E-01
  0.23629E-01
  0.23164E-01
  0.22436E-01
  0.22184E-01
  0.21327E-01
  0.70233E-02
  0.31035E-01
  0.21281E-01
  0.77886E-02
 -0.99105E-02
 -0.14643E-01
  0.19505E-01
  0.14084E-01
  0.96631E-02
  0.10427E-01
  0.54437E-02
  0.70663E-02
  0.20001E-02
  0.43879E-02
 -0.31574E-03
 -0.38614E-02
 -0.68230E-02
 -0.14871E-02
 -0.62180E-02
 -0.12728E-01
 -0.10861E-01
 -0.48007E-02
 -0.81070E-02
 -0.27933E-02
 -0.44902E-02
 -0.10356E-01
 -0.54937E-02
 -0.11350E-01
 -0.60144E-02
 -0.11126E-02
 -0.10079E-02
  0.29196E-02
  0.36175E-02
  0.64128E-02
  0.73235E-02
  0.92983E-02
  0.10401E-01
  0.83205E-02
  0.11252E-01
  0.12497E-01
  0.13336E-01
  0.13836E-01
  0.14538E-01
  0.11951E-01
 -0.15152E-03
  0.10781E-01
  0.11910E-01
  0.13732E-01
  0.14423E-01
  0.14795E-01
  0.24648E-01
  0.68667E-02
  0.20374E-01
  0.20325E-01
  0.80560E-02
  0.14508E-01
  0.14281E-01
  0.13975E-01
  0.12462E-01
  0.12333E-01
  0.10027E-01
 -0.17619E-01
 -0.18000E-01
  0.99060E-02
  0.70056E-02
 -0.40956E-03
  0.18646E-02
 -0.22174E-02
  0.30043E-01
  0.78070E-02
  0.78783E-02
 -0.18833E-01
 -0.38187E-02
  0.93531E-02
  0.12919E-01
  0.13831E-01
  0.16011E-01
  0.16316E-01
  0.17376E-01
  0.17216E-01
  0.16004E-01
  0.16660E-01
  0.15192E-01
  0.17391E-01
  0.15793E-01
  0.14115E-01
  0.12579E-01
  0.11245E-01
  0.88436E-02
  0.70078E-02
  0.97715E-02
  0.47699E-02
  0.14136E-02
  0.83573E-02
  0.25597E-02
  0.66125E-02
  0.21755E-02
  0.35385E-02
 -0.48423E-02
  0.12278E-01
 -0.28346E-02
  0.45393E-03
  0.22059E-01
  0.21322E-01
 -0.12362E-01
  0.12451E-04
  0.10974E-01
  0.13343E-01
  0.19581E-01
  0.13217E-01
  0.71841E-02
 -0.14684E-01
 -0.18639E-01
  0.70782E-02
  0.71116E-02
  0.14932E-01
  0.33273E-02
  0.30694E-01
  0.31618E-01
  0.62562E-02
  0.73343E-02
  0.15446E-02
  0.10584E-01
  0.22411E-03
 -0.54069E-02
 -0.25110E-01
 -0.25185E-01
 -0.69623E-02
  0.31599E-01
  0.31047E-01
 -0.33429E-02
 -0.11848E-01
  0.10310E-02
 -0.51212E-02
 -0.58050E-02
 -0.60782E-03
 -0.21154E-01
 -0.27622E-01
 -0.21979E-03
  0.99304E-02
  0.10209E-01
 -0.47398E-02
  0.14580E-02
  0.19349E-01
  0.19107E-01
  0.76662E-02
  0.73959E-02
  0.12995E-01
  0.16409E-01
 -0.10000E-01
 -0.59213E-03
 -0.57928E-02
  0.11471E-02
 -0.17981E-01
 -0.57585E-02
  0.65367E-02
  0.13139E-01
 -0.10809E-01
 -0.41502E-02
  0.87251E-02
  0.22024E-01
  0.11337E-01
 -0.27269E-01
  0.45978E-02
  0.21435E-01
  0.40600E-02
  0.30909E-01
  0.30330E-01
  0.30267E-01
  0.29496E-01
  0.29541E-01
  0.29474E-01
  0.28593E-01
  0.75299E-02
  0.29473E-01
 -0.37593E-02
  0.41023E-03
  0.15041E-01
  0.69098E-02
  0.68722E-02
  0.31377E-02
  0.65009E-02
 -0.23475E-01
  0.31440E-01
  0.32268E-01
  0.19564E-01
  0.17920E-01
  0.17733E-01
  0.22728E-01
 -0.32606E-01
 -0.32340E-01
  0.64700E-02
 -0.10920E-01
 -0.16858E-01
 -0.41439E-02
 -0.10519E-02
 -0.45589E-02
 -0.15042E-02
 -0.34801E-02
  0.77557E-03
 -0.84080E-04
 -0.52626E-03
  0.19067E-01
  0.17567E-01
  0.16273E-01
  0.15942E-01
  0.14666E-01
  0.14254E-01
  0.64720E-02
 -0.26624E-01
  0.37583E-02
  0.31244E-01
  0.31908E-01
  0.13914E-01
 -0.18115E-01
  0.46574E-02
  0.73699E-02
  0.31850E-02
  0.52752E-02
  0.92801E-02
  0.93204E-02
  0.10366E-01
 -0.22161E-02
  0.15393E-01
  0.97483E-02
 -0.31234E-01
 -0.13574E-01
  0.10955E-01
  0.28579E-01
  0.27647E-01
  0.27739E-01
  0.26823E-01
 -0.11970E-01
  0.10700E-01
 -0.39048E-01
 -0.39001E-01
 -0.31145E-01
 -0.36997E-01
  0.22624E-01
  0.23349E-01
  0.65258E-02
 -0.17057E-01
 -0.22231E-01
  0.10092E-01
  0.57799E-02
  0.28877E-02
  0.81113E-02
  0.79251E-02
  0.88658E-02
  0.87443E-02
 -0.39789E-01
  0.31774E-01
  0.28719E-01
  0.27988E-01
  0.77820E-02
  0.93479E-02
  0.22872E-01
  0.89045E-02
  0.72213E-02
  0.10549E-01
 -0.78827E-02
 -0.66959E-02
  0.71344E-02
  0.77524E-02
  0.13022E-01
  0.13681E-01
 -0.25885E-01
 -0.34916E-01
 -0.36223E-01
 -0.19125E-01
 -0.12565E-01
 -0.74527E-02
  0.14812E-01
  0.11963E-01
  0.13017E-01
 -0.10399E-02
  0.60450E-02
  0.12015E-02
  0.31488E-01
  0.32266E-01
  0.10407E-01
  0.23339E-02
  0.27575E-02
  0.29250E-02
  0.97155E-02
  0.32222E-01
  0.32946E-01
  0.31183E-01
  0.94248E-02
  0.92578E-02
  0.10396E-01
  0.30304E-01
 -0.12155E-01
 -0.72211E-02
 -0.14023E-01
  0.30443E-01
  0.27080E-01
  0.26282E-01
  0.25129E-01
  0.29282E-02
  0.10768E-02
 -0.60868E-02
  0.10502E-01
  0.63158E-02
  0.19979E-02
  0.54425E-02
  0.12356E-02
 -0.33818E-01
 -0.40417E-01
 -0.39161E-01
  0.26657E-01
  0.25888E-01
  0.26172E-01
  0.25302E-01
  0.10413E-01
  0.20695E-01
  0.20950E-01
  0.50948E-02
  0.24314E-01
  0.23044E-01
  0.25682E-01
 -0.11336E-01
 -0.10723E-01
  0.96724E-02
  0.96058E-02
  0.85721E-02
  0.95728E-02
  0.17513E-01
  0.16757E-01
  0.19005E-01
  0.16443E-01
  0.18664E-01
 -0.11070E-01
  0.28917E-01
  0.16277E-01
  0.13919E-01
 -0.41172E-01
 -0.42615E-01
  0.11238E-02
  0.32663E-02
  0.31738E-01
  0.37864E-02
  0.14250E-01
 -0.27238E-01
 -0.30995E-01
 -0.44006E-01
 -0.33281E-01
 -0.22879E-01
 -0.22625E-01
 -0.59639E-02
 -0.13001E-02
  0.17324E-01
  0.16515E-01
  0.16377E-01
  0.14843E-01
  0.14676E-01
  0.12782E-01
  0.12915E-01
  0.83772E-02
  0.96326E-02
  0.10281E-01
  0.10383E-01
  0.24978E-01
  0.24457E-01
  0.73893E-02
  0.81093E-02
  0.78554E-02
 -0.79485E-02
  0.18644E-01
  0.13240E-02
 -0.65182E-02
  0.20200E-01
  0.58000E-02
  0.48043E-02
  0.81244E-02
  0.86228E-02
 -0.23204E-01
  0.11937E-02
  0.37398E-02
 -0.40072E-01
 -0.32544E-01
 -0.20182E-01
 -0.12822E-01
 -0.93272E-02
 -0.17495E-01
 -0.43214E-02
 -0.83149E-02
  0.16844E-02
 -0.34047E-03
  0.81079E-02
  0.76663E-02
  0.14702E-01
  0.13758E-01
  0.19011E-01
  0.20867E-01
  0.23529E-01
  0.25871E-01
  0.27141E-01
  0.29668E-01
  0.28944E-01
  0.32631E-01
  0.32090E-01
  0.34591E-01
  0.33470E-01
  0.35310E-01
  0.36831E-01
  0.36898E-01
  0.38760E-01
  0.37959E-01
  0.39923E-01
  0.38408E-01
  0.36732E-01
  0.36655E-01
  0.38235E-01
  0.35942E-01
  0.36728E-01
  0.34713E-01
  0.34979E-01
  0.36951E-01
  0.34631E-01
  0.32814E-01
  0.31881E-01
  0.36559E-01
  0.35318E-01
  0.30444E-01
  0.28988E-01
  0.30037E-01
  0.26621E-01
  0.26037E-01
  0.23382E-01
  0.38685E-01
  0.31573E-01
  0.33976E-01
  0.21168E-01
  0.19238E-01
  0.21258E-01
  0.17867E-01
  0.14830E-01
  0.14536E-01
  0.10873E-01
  0.11678E-01
  0.80411E-02
  0.95980E-02
  0.66103E-02
  0.83555E-02
  0.17583E-01
  0.32516E-01
  0.31326E-01
  0.23943E-01
  0.34072E-01
  0.32685E-01
  0.38914E-01
  0.35312E-01
  0.27546E-01
  0.98878E-02
  0.21576E-01
  0.21146E-01
 -0.46181E-02
  0.71253E-02
 -0.39421E-01
 -0.13290E-02
 -0.66834E-02
  0.91846E-02
 -0.44128E-01
  0.85158E-02
  0.85321E-02
  0.12759E-01
  0.14425E-01
  0.65261E-02
  0.22341E-02
  0.12528E-02
 -0.13173E-02
  0.12283E-01
 -0.13964E-02
  0.66849E-02
  0.38109E-01
  0.10291E-01
  0.15758E-01
  0.51714E-02
  0.18790E-02
  0.16618E-01
  0.33717E-02
 -0.10004E-02
 -0.38076E-02
 -0.38934E-01
  0.41192E-02
  0.34719E-01
  0.40374E-01
 -0.31391E-02
 -0.48427E-01
 -0.38629E-02
  0.23543E-01
  0.20823E-01
  0.88382E-02
  0.32567E-01
  0.11046E-01
  0.11332E-01
  0.11887E-01
 -0.19634E-01
 -0.22657E-01
 -0.22375E-01
  0.23777E-01
  0.28167E-01
 -0.49401E-01
  0.12657E-01
  0.32174E-01
 -0.15826E-01
 -0.18130E-01
 -0.24579E-02
  0.74958E-02
  0.36327E-02
  0.54947E-02
  0.27973E-01
  0.23162E-01
  0.22580E-01
  0.13713E-01
  0.13737E-01
  0.15860E-01
  0.15495E-01
  0.34225E-01
  0.10940E-01
  0.10280E-01
  0.13303E-03
  0.25319E-01
  0.27711E-01
 -0.37192E-02
  0.95889E-02
  0.84860E-02
 -0.94269E-02
  0.25086E-02
  0.10513E-01
  0.10663E-01
 -0.21143E-01
 -0.17601E-01
 -0.44657E-01
 -0.41281E-01
  0.12829E-01
  0.12042E-01
  0.12919E-01
  0.32420E-01
  0.30919E-01
  0.32873E-01
  0.16472E-01
  0.10796E-01
  0.35414E-02
 -0.20500E-01
 -0.24533E-01
  0.12873E-01
  0.38409E-01
  0.32082E-01
  0.30775E-01
  0.10708E-01
 -0.52636E-01
  0.33300E-01
  0.12443E-01
  0.14763E-01
  0.12427E-01
  0.95148E-02
  0.16575E-01
  0.79844E-02
  0.81972E-02
  0.83135E-02
  0.19074E-01
  0.98485E-02
  0.12925E-01
  0.63135E-02
  0.42607E-02
  0.15980E-01
 -0.46811E-01
 -0.19280E-01
 -0.21404E-01
 -0.16600E-01
 -0.22187E-01
  0.68645E-02
 -0.67978E-02
  0.26379E-01
 -0.15756E-01
  0.96803E-02
  0.87025E-02
  0.10970E-01
  0.35892E-01
  0.59336E-02
  0.12277E-01
  0.23999E-01
 -0.66434E-02
 -0.11341E-01
  0.99325E-02
 -0.17207E-02
 -0.40020E-01
  0.30382E-01
  0.31182E-01
  0.40946E-01
  0.41876E-01
  0.40248E-01
  0.41657E-01
  0.39958E-01
 -0.71597E-03
  0.23101E-01
  0.56878E-02
  0.44071E-01
  0.80081E-02
  0.82641E-02
  0.22323E-01
  0.24417E-01
  0.49670E-02
 -0.58377E-04
  0.78375E-02
 -0.20811E-03
 -0.84293E-02
  0.10441E-01
  0.16283E-01
 -0.45170E-02
 -0.84866E-02
 -0.89315E-02
 -0.68884E-02
  0.16431E-01
  0.12904E-01
  0.11281E-01
  0.10374E-01
  0.29014E-01
  0.43092E-01
  0.63009E-02
  0.62259E-02
  0.60423E-02
  0.93932E-03
  0.51905E-02
  0.56951E-02
  0.15372E-01
 -0.19966E-02
 -0.26413E-01
  0.35933E-02
  0.13307E-02
 -0.39489E-02
 -0.50502E-01
 -0.33321E-01
 -0.38611E-01
  0.31736E-01
  0.31929E-01
  0.32842E-01
  0.37455E-02
 -0.34134E-01
 -0.29801E-01
 -0.22401E-02
 -0.14781E-01
  0.23843E-01
  0.24412E-01
  0.17017E-01
  0.33584E-01
 -0.99349E-02
 -0.15345E-01
 -0.16043E-01
  0.20374E-01
  0.20564E-01
  0.21826E-01
  0.19150E-01
  0.20902E-01
  0.21505E-01
  0.23611E-01
  0.24347E-01
  0.30943E-01
  0.31244E-01
  0.31313E-01
  0.31234E-01
  0.11363E-01
  0.29534E-01
  0.28639E-01
  0.30478E-01
  0.30968E-01
  0.27608E-01
  0.29775E-01
  0.28853E-01
 -0.14353E-01
  0.12645E-01
  0.12722E-01
  0.12037E-01
  0.12903E-01
  0.13207E-01
  0.12027E-01
  0.13804E-01
  0.13473E-01
  0.13055E-01
  0.11045E-01
  0.10752E-01
  0.49562E-02
  0.25980E-01
  0.26492E-01
  0.27552E-01
  0.27765E-01
  0.28633E-01
  0.28622E-01
  0.28916E-01
 -0.67373E-02
 -0.10553E-01
  0.77214E-02
  0.26622E-01
  0.28855E-01
  0.29306E-01
 -0.20147E-01
 -0.14768E-01
  0.12773E-02
 -0.53634E-02
  0.23572E-01
  0.27621E-01
  0.27712E-01
  0.22283E-01
  0.99999E-02
  0.11082E-01
  0.11423E-01
  0.92193E-02
  0.88939E-02
  0.67678E-02
  0.56004E-02
  0.37684E-02
  0.54978E-02
  0.85256E-02
  0.92805E-02
  0.29547E-01
  0.84614E-02
  0.70993E-02
  0.77119E-02
  0.57392E-02
  0.66682E-02
  0.85670E-02
  0.78119E-02
  0.52605E-02
 -0.16729E-01
  0.24269E-01
  0.26481E-01
  0.27720E-01
  0.90722E-02
  0.11218E-01
  0.10405E-01
  0.11468E-01
  0.10524E-01
  0.11782E-01
  0.10549E-01
  0.88321E-02
  0.12298E-01
  0.12053E-01
  0.16862E-01
  0.16518E-01
  0.17786E-01
  0.16467E-01
  0.17668E-01
  0.18142E-01
  0.18896E-01
 -0.36553E-02
  0.24204E-01
 -0.45131E-01
  0.13768E-02
  0.73552E-02
 -0.11290E-01
  0.91285E-02
  0.83174E-02
  0.73746E-02
  0.71840E-02
  0.91714E-02
  0.86017E-02
  0.29900E-01
 -0.31064E-01
  0.20227E-02
  0.34660E-01
  0.72127E-02
  0.34728E-02
  0.12888E-01
  0.18859E-01
  0.91207E-02
  0.13609E-01
  0.29836E-02
  0.99212E-02
  0.65752E-02
  0.69673E-02
  0.12075E-01
  0.11391E-01
 -0.16252E-01
 -0.64455E-02
 -0.37280E-02
 -0.39605E-02
 -0.33615E-01
  0.95124E-02
  0.47208E-02
  0.14777E-01
  0.13958E-01
  0.13722E-01
  0.15338E-01
  0.13903E-01
  0.15070E-01
  0.15740E-01
  0.15274E-01
  0.15252E-01
  0.15152E-01
  0.14236E-01
  0.20059E-01
  0.20591E-01
  0.12080E-01
  0.99534E-02
 -0.27576E-01
  0.99687E-02
  0.10793E-01
  0.34096E-01
  0.33628E-01
  0.34205E-01
  0.33639E-01
  0.33913E-01
  0.90313E-02
  0.12619E-01
  0.11242E-01
  0.75591E-02
  0.10416E-01
  0.20570E-02
  0.21808E-01
  0.11362E-01
  0.15571E-01
 -0.47830E-02
 -0.86917E-02
 -0.12168E-01
  0.27838E-02
  0.41162E-02
  0.60591E-02
  0.32301E-02
  0.41794E-02
  0.28016E-02
  0.47176E-02
  0.35457E-02
  0.15764E-02
  0.26090E-02
  0.49243E-02
  0.68510E-02
  0.71510E-02
  0.89201E-02
  0.90110E-02
  0.17076E-01
  0.13592E-01
  0.10950E-01
  0.69956E-02
  0.70576E-02
 -0.15912E-01
  0.12062E-02
  0.10569E-02
 -0.20956E-01
 -0.14420E-01
  0.81808E-02
  0.11698E-02
  0.82537E-02
  0.62903E-02
 -0.64442E-02
  0.32841E-01
 -0.66473E-02
 -0.18417E-01
 -0.20323E-02
  0.67057E-02
  0.19231E-01
  0.35275E-01
  0.11041E-01
  0.10915E-01
 -0.94484E-02
  0.15470E-01
  0.48231E-02
 -0.21340E-01
 -0.24093E-02
  0.42192E-02
  0.88485E-02
  0.13169E-01
  0.30750E-03
  0.13041E-01
 -0.20916E-01
 -0.41102E-01
 -0.43303E-01
  0.63489E-02
 -0.47975E-02
  0.33910E-01
  0.14074E-01
  0.96890E-02
 -0.16408E-02
  0.25678E-01
  0.33955E-01
  0.22886E-01
 -0.38127E-01
  0.89501E-02
  0.11550E-01
  0.14106E-01
 -0.13653E-01
  0.27472E-02
  0.16872E-01
  0.74413E-02
 -0.37217E-01
  0.49205E-02
  0.17015E-01
  0.29939E-02
  0.41106E-01
  0.97978E-02
 -0.22665E-01
  0.22587E-01
 -0.24699E-02
  0.15128E-01
  0.11839E-01
  0.16183E-01
  0.40610E-02
  0.11614E-01
 -0.95523E-02
  0.21709E-02
  0.10331E-01
  0.29291E-01
 -0.49774E-03
  0.18073E-02
  0.31902E-01
 -0.23635E-01
 -0.27239E-01
  0.16699E-02
  0.22051E-01
 -0.61257E-01
 -0.62238E-01
  0.53590E-02
  0.21471E-01
 -0.11985E-01
 -0.22922E-01
 -0.44617E-01
  0.12698E-01
  0.99772E-02
  0.30425E-01
  0.17369E-01
  0.32672E-02
 -0.15795E-01
  0.17179E-01
  0.13883E-01
  0.35707E-02
  0.14258E-01
  0.31673E-01
  0.90927E-02
  0.20749E-01
  0.31258E-01
  0.10764E-01
  0.54820E-02
  0.19264E-01
 -0.44073E-01
 -0.18458E-01
  0.10381E-01
 -0.16385E-01
  0.30329E-01
  0.84513E-02
  0.91268E-02
  0.16005E-01
  0.20522E-01
  0.57656E-02
  0.26157E-01
  0.22824E-01
  0.70539E-02
  0.21100E-01
  0.75043E-02
  0.15795E-01
 -0.49467E-02
  0.84339E-02
  0.26588E-01
  0.11236E-01
 -0.45949E-01
  0.15722E-01
  0.29291E-01
  0.49657E-02
 -0.32752E-01
  0.34534E-01
  0.13435E-01
  0.80746E-02
  0.76229E-02
  0.31305E-01
 -0.66362E-02
  0.21179E-01
  0.27864E-01
  0.48690E-03
  0.19904E-01
  0.25639E-01
  0.19012E-01
  0.36292E-01
  0.33014E-01
  0.24446E-01
 -0.90882E-02
  0.22866E-01
  0.83854E-02
 -0.22461E-02
 -0.22937E-01