# vtk DataFile Version 2.0
Unstructured Grid UFVM-ECOMOD
ASCII
DATASET UNSTRUCTURED_GRID
 POINTS         1724  float
  0.00000E+00  0.00000E+00  0.00000E+00
  0.40000E+01  0.00000E+00  0.00000E+00
  0.40000E+01  0.20000E+01  0.00000E+00
  0.00000E+00  0.20000E+01  0.00000E+00
  0.15750E+01  0.10287E+01  0.00000E+00
  0.15677E+01  0.97091E+00  0.00000E+00
  0.15461E+01  0.91674E+00  0.00000E+00
  0.15118E+01  0.86961E+00  0.00000E+00
  0.14667E+01  0.83248E+00  0.00000E+00
  0.14138E+01  0.80767E+00  0.00000E+00
  0.13563E+01  0.79675E+00  0.00000E+00
  0.12979E+01  0.80041E+00  0.00000E+00
  0.12423E+01  0.81842E+00  0.00000E+00
  0.11929E+01  0.84963E+00  0.00000E+00
  0.11529E+01  0.89210E+00  0.00000E+00
  0.11247E+01  0.94315E+00  0.00000E+00
  0.11102E+01  0.99958E+00  0.00000E+00
  0.11102E+01  0.10578E+01  0.00000E+00
  0.11247E+01  0.11143E+01  0.00000E+00
  0.11529E+01  0.11653E+01  0.00000E+00
  0.11929E+01  0.12078E+01  0.00000E+00
  0.12423E+01  0.12390E+01  0.00000E+00
  0.12979E+01  0.12570E+01  0.00000E+00
  0.13563E+01  0.12607E+01  0.00000E+00
  0.14138E+01  0.12497E+01  0.00000E+00
  0.14667E+01  0.12249E+01  0.00000E+00
  0.15118E+01  0.11878E+01  0.00000E+00
  0.15461E+01  0.11407E+01  0.00000E+00
  0.15677E+01  0.10865E+01  0.00000E+00
  0.10000E+00  0.00000E+00  0.00000E+00
  0.20000E+00  0.00000E+00  0.00000E+00
  0.30000E+00  0.00000E+00  0.00000E+00
  0.40000E+00  0.00000E+00  0.00000E+00
  0.50000E+00  0.00000E+00  0.00000E+00
  0.60000E+00  0.00000E+00  0.00000E+00
  0.70000E+00  0.00000E+00  0.00000E+00
  0.80000E+00  0.00000E+00  0.00000E+00
  0.90000E+00  0.00000E+00  0.00000E+00
  0.10000E+01  0.00000E+00  0.00000E+00
  0.11000E+01  0.00000E+00  0.00000E+00
  0.12000E+01  0.00000E+00  0.00000E+00
  0.13000E+01  0.00000E+00  0.00000E+00
  0.14000E+01  0.00000E+00  0.00000E+00
  0.15000E+01  0.00000E+00  0.00000E+00
  0.16000E+01  0.00000E+00  0.00000E+00
  0.17000E+01  0.00000E+00  0.00000E+00
  0.18000E+01  0.00000E+00  0.00000E+00
  0.19000E+01  0.00000E+00  0.00000E+00
  0.20000E+01  0.00000E+00  0.00000E+00
  0.21000E+01  0.00000E+00  0.00000E+00
  0.22000E+01  0.00000E+00  0.00000E+00
  0.23000E+01  0.00000E+00  0.00000E+00
  0.24000E+01  0.00000E+00  0.00000E+00
  0.25000E+01  0.00000E+00  0.00000E+00
  0.26000E+01  0.00000E+00  0.00000E+00
  0.27000E+01  0.00000E+00  0.00000E+00
  0.28000E+01  0.00000E+00  0.00000E+00
  0.29000E+01  0.00000E+00  0.00000E+00
  0.30000E+01  0.00000E+00  0.00000E+00
  0.31000E+01  0.00000E+00  0.00000E+00
  0.32000E+01  0.00000E+00  0.00000E+00
  0.33000E+01  0.00000E+00  0.00000E+00
  0.34000E+01  0.00000E+00  0.00000E+00
  0.35000E+01  0.00000E+00  0.00000E+00
  0.36000E+01  0.00000E+00  0.00000E+00
  0.37000E+01  0.00000E+00  0.00000E+00
  0.38000E+01  0.00000E+00  0.00000E+00
  0.39000E+01  0.00000E+00  0.00000E+00
  0.40000E+01  0.10000E+00  0.00000E+00
  0.40000E+01  0.20000E+00  0.00000E+00
  0.40000E+01  0.30000E+00  0.00000E+00
  0.40000E+01  0.40000E+00  0.00000E+00
  0.40000E+01  0.50000E+00  0.00000E+00
  0.40000E+01  0.60000E+00  0.00000E+00
  0.40000E+01  0.70000E+00  0.00000E+00
  0.40000E+01  0.80000E+00  0.00000E+00
  0.40000E+01  0.90000E+00  0.00000E+00
  0.40000E+01  0.10000E+01  0.00000E+00
  0.40000E+01  0.11000E+01  0.00000E+00
  0.40000E+01  0.12000E+01  0.00000E+00
  0.40000E+01  0.13000E+01  0.00000E+00
  0.40000E+01  0.14000E+01  0.00000E+00
  0.40000E+01  0.15000E+01  0.00000E+00
  0.40000E+01  0.16000E+01  0.00000E+00
  0.40000E+01  0.17000E+01  0.00000E+00
  0.40000E+01  0.18000E+01  0.00000E+00
  0.40000E+01  0.19000E+01  0.00000E+00
  0.39000E+01  0.20000E+01  0.00000E+00
  0.38000E+01  0.20000E+01  0.00000E+00
  0.37000E+01  0.20000E+01  0.00000E+00
  0.36000E+01  0.20000E+01  0.00000E+00
  0.35000E+01  0.20000E+01  0.00000E+00
  0.34000E+01  0.20000E+01  0.00000E+00
  0.33000E+01  0.20000E+01  0.00000E+00
  0.32000E+01  0.20000E+01  0.00000E+00
  0.31000E+01  0.20000E+01  0.00000E+00
  0.30000E+01  0.20000E+01  0.00000E+00
  0.29000E+01  0.20000E+01  0.00000E+00
  0.28000E+01  0.20000E+01  0.00000E+00
  0.27000E+01  0.20000E+01  0.00000E+00
  0.26000E+01  0.20000E+01  0.00000E+00
  0.25000E+01  0.20000E+01  0.00000E+00
  0.24000E+01  0.20000E+01  0.00000E+00
  0.23000E+01  0.20000E+01  0.00000E+00
  0.22000E+01  0.20000E+01  0.00000E+00
  0.21000E+01  0.20000E+01  0.00000E+00
  0.20000E+01  0.20000E+01  0.00000E+00
  0.19000E+01  0.20000E+01  0.00000E+00
  0.18000E+01  0.20000E+01  0.00000E+00
  0.17000E+01  0.20000E+01  0.00000E+00
  0.16000E+01  0.20000E+01  0.00000E+00
  0.15000E+01  0.20000E+01  0.00000E+00
  0.14000E+01  0.20000E+01  0.00000E+00
  0.13000E+01  0.20000E+01  0.00000E+00
  0.12000E+01  0.20000E+01  0.00000E+00
  0.11000E+01  0.20000E+01  0.00000E+00
  0.10000E+01  0.20000E+01  0.00000E+00
  0.90000E+00  0.20000E+01  0.00000E+00
  0.80000E+00  0.20000E+01  0.00000E+00
  0.70000E+00  0.20000E+01  0.00000E+00
  0.60000E+00  0.20000E+01  0.00000E+00
  0.50000E+00  0.20000E+01  0.00000E+00
  0.40000E+00  0.20000E+01  0.00000E+00
  0.30000E+00  0.20000E+01  0.00000E+00
  0.20000E+00  0.20000E+01  0.00000E+00
  0.10000E+00  0.20000E+01  0.00000E+00
  0.00000E+00  0.19000E+01  0.00000E+00
  0.00000E+00  0.18000E+01  0.00000E+00
  0.00000E+00  0.17000E+01  0.00000E+00
  0.00000E+00  0.16000E+01  0.00000E+00
  0.00000E+00  0.15000E+01  0.00000E+00
  0.00000E+00  0.14000E+01  0.00000E+00
  0.00000E+00  0.13000E+01  0.00000E+00
  0.00000E+00  0.12000E+01  0.00000E+00
  0.00000E+00  0.11000E+01  0.00000E+00
  0.00000E+00  0.10000E+01  0.00000E+00
  0.00000E+00  0.90000E+00  0.00000E+00
  0.00000E+00  0.80000E+00  0.00000E+00
  0.00000E+00  0.70000E+00  0.00000E+00
  0.00000E+00  0.60000E+00  0.00000E+00
  0.00000E+00  0.50000E+00  0.00000E+00
  0.00000E+00  0.40000E+00  0.00000E+00
  0.00000E+00  0.30000E+00  0.00000E+00
  0.00000E+00  0.20000E+00  0.00000E+00
  0.00000E+00  0.10000E+00  0.00000E+00
  0.15713E+01  0.99981E+00  0.00000E+00
  0.15569E+01  0.94382E+00  0.00000E+00
  0.15290E+01  0.89318E+00  0.00000E+00
  0.14892E+01  0.85104E+00  0.00000E+00
  0.14402E+01  0.82007E+00  0.00000E+00
  0.13850E+01  0.80221E+00  0.00000E+00
  0.13271E+01  0.79858E+00  0.00000E+00
  0.12701E+01  0.80941E+00  0.00000E+00
  0.12176E+01  0.83402E+00  0.00000E+00
  0.11729E+01  0.87086E+00  0.00000E+00
  0.11388E+01  0.91762E+00  0.00000E+00
  0.11175E+01  0.97136E+00  0.00000E+00
  0.11102E+01  0.10287E+01  0.00000E+00
  0.11175E+01  0.10860E+01  0.00000E+00
  0.11388E+01  0.11398E+01  0.00000E+00
  0.11729E+01  0.11865E+01  0.00000E+00
  0.12176E+01  0.12234E+01  0.00000E+00
  0.12701E+01  0.12480E+01  0.00000E+00
  0.13271E+01  0.12588E+01  0.00000E+00
  0.13850E+01  0.12552E+01  0.00000E+00
  0.14402E+01  0.12373E+01  0.00000E+00
  0.14892E+01  0.12064E+01  0.00000E+00
  0.15290E+01  0.11642E+01  0.00000E+00
  0.15569E+01  0.11136E+01  0.00000E+00
  0.15713E+01  0.10576E+01  0.00000E+00
  0.15994E+01  0.10133E+01  0.00000E+00
  0.15863E+01  0.11089E+01  0.00000E+00
  0.25478E+01  0.10053E+00  0.00000E+00
  0.25434E+01  0.19142E+01  0.00000E+00
  0.11238E+01  0.89266E+00  0.00000E+00
  0.11061E+01  0.11423E+01  0.00000E+00
  0.15575E+01  0.89126E+00  0.00000E+00
  0.10894E+01  0.97917E+00  0.00000E+00
  0.15393E+01  0.11910E+01  0.00000E+00
  0.11627E+01  0.12175E+01  0.00000E+00
  0.14962E+01  0.82262E+00  0.00000E+00
  0.29512E+01  0.95010E-01  0.00000E+00
  0.29494E+01  0.19117E+01  0.00000E+00
  0.39186E+01  0.10466E+01  0.00000E+00
  0.11913E+01  0.82197E+00  0.00000E+00
  0.12788E+01  0.78594E+00  0.00000E+00
  0.21500E+01  0.86600E-01  0.00000E+00
  0.21472E+01  0.19005E+01  0.00000E+00
  0.14041E+01  0.78007E+00  0.00000E+00
  0.14641E+01  0.12550E+01  0.00000E+00
  0.13764E+01  0.12826E+01  0.00000E+00
  0.99450E-01  0.63780E+00  0.00000E+00
  0.92450E-01  0.13422E+01  0.00000E+00
  0.12473E+01  0.12677E+01  0.00000E+00
  0.65677E+00  0.19154E+01  0.00000E+00
  0.86110E-01  0.10467E+01  0.00000E+00
  0.75000E+00  0.86600E-01  0.00000E+00
  0.33379E+01  0.88030E-01  0.00000E+00
  0.33490E+01  0.19201E+01  0.00000E+00
  0.18500E+01  0.86600E-01  0.00000E+00
  0.18441E+01  0.19006E+01  0.00000E+00
  0.38922E+01  0.64055E+00  0.00000E+00
  0.39154E+01  0.13500E+01  0.00000E+00
  0.10564E+01  0.85180E-01  0.00000E+00
  0.94817E+00  0.19249E+01  0.00000E+00
  0.15421E+01  0.85450E-01  0.00000E+00
  0.15479E+01  0.19161E+01  0.00000E+00
  0.12386E+01  0.19130E+01  0.00000E+00
  0.45294E+00  0.85030E-01  0.00000E+00
  0.86890E-01  0.16531E+01  0.00000E+00
  0.36495E+01  0.78620E-01  0.00000E+00
  0.36510E+01  0.19107E+01  0.00000E+00
  0.10846E+01  0.10423E+01  0.00000E+00
  0.15860E+01  0.94842E+00  0.00000E+00
  0.13392E+01  0.77093E+00  0.00000E+00
  0.13108E+01  0.12864E+01  0.00000E+00
  0.87300E-01  0.35008E+00  0.00000E+00
  0.34468E+00  0.19176E+01  0.00000E+00
  0.39135E+01  0.16499E+01  0.00000E+00
  0.39252E+01  0.34254E+00  0.00000E+00
  0.13680E+01  0.88360E-01  0.00000E+00
  0.88350E-01  0.84594E+00  0.00000E+00
  0.23513E+01  0.77830E-01  0.00000E+00
  0.23488E+01  0.19154E+01  0.00000E+00
  0.27481E+01  0.80910E-01  0.00000E+00
  0.31480E+01  0.84140E-01  0.00000E+00
  0.31513E+01  0.19149E+01  0.00000E+00
  0.27502E+01  0.19198E+01  0.00000E+00
  0.39134E+01  0.85000E+00  0.00000E+00
  0.25071E+00  0.86200E-01  0.00000E+00
  0.91130E-01  0.18412E+01  0.00000E+00
  0.38461E+01  0.84360E-01  0.00000E+00
  0.38408E+01  0.19092E+01  0.00000E+00
  0.97440E-01  0.15849E+00  0.00000E+00
  0.15988E+01  0.10458E+01  0.00000E+00
  0.16261E+01  0.10305E+01  0.00000E+00
  0.16281E+01  0.99836E+00  0.00000E+00
  0.16554E+01  0.10148E+01  0.00000E+00
  0.16578E+01  0.98164E+00  0.00000E+00
  0.16863E+01  0.99914E+00  0.00000E+00
  0.16884E+01  0.96239E+00  0.00000E+00
  0.17222E+01  0.98417E+00  0.00000E+00
  0.17231E+01  0.93952E+00  0.00000E+00
  0.17605E+01  0.96435E+00  0.00000E+00
  0.17576E+01  0.10098E+01  0.00000E+00
  0.17991E+01  0.98970E+00  0.00000E+00
  0.17625E+01  0.91931E+00  0.00000E+00
[...]
 POINT_DATA         1724
  
 SCALARS WL      float 1
 LOOKUP_TABLE default
  0.21576E-01
  0.51619E-02
  0.12473E-03
  0.34482E-01
 -0.39718E-01
 -0.32943E-01
 -0.20130E-01
 -0.73096E-02
 -0.34768E-02
 -0.16685E-02
  0.55080E-03
 -0.51133E-02
 -0.14395E-03
  0.91855E-02
  0.25222E-01
  0.36759E-01
  0.43738E-01
  0.44103E-01
  0.37717E-01
  0.25819E-01
  0.71766E-02
 -0.14922E-01
 -0.38845E-01
 -0.62264E-01
 -0.66418E-01
 -0.50705E-01
 -0.47115E-01
 -0.44466E-01
 -0.41935E-01
  0.21339E-01
  0.20927E-01
  0.20356E-01
  0.19619E-01
  0.18663E-01
  0.17462E-01
  0.16028E-01
  0.14405E-01
  0.12469E-01
  0.10389E-01
  0.87382E-02
  0.73836E-02
  0.67287E-02
  0.71920E-02
  0.78716E-02
  0.87529E-02
  0.94688E-02
  0.99476E-02
  0.10435E-01
  0.10684E-01
  0.10967E-01
  0.10968E-01
  0.10832E-01
  0.10161E-01
  0.95161E-02
  0.88660E-02
  0.86480E-02
  0.89132E-02
  0.95768E-02
  0.11004E-01
  0.12720E-01
  0.14448E-01
  0.16128E-01
  0.17023E-01
  0.17433E-01
  0.16681E-01
  0.14927E-01
  0.12530E-01
  0.86107E-02
  0.00000E+00
  0.00000E+00
  0.00000E+00
  0.00000E+00
  0.00000E+00
  0.00000E+00
  0.00000E+00
  0.00000E+00
  0.00000E+00
  0.00000E+00
  0.00000E+00
  0.00000E+00
  0.00000E+00
  0.00000E+00
  0.00000E+00
  0.00000E+00
  0.00000E+00
  0.00000E+00
  0.00000E+00
  0.19976E-03
  0.10609E-02
  0.32061E-02
  0.56886E-02
  0.80900E-02
  0.10327E-01
  0.11426E-01
  0.11404E-01
  0.10236E-01
  0.83339E-02
  0.68779E-02
  0.67763E-02
  0.77025E-02
  0.91258E-02
  0.10626E-01
  0.11833E-01
  0.12562E-01
  0.12794E-01
  0.12587E-01
  0.11914E-01
  0.11049E-01
  0.10124E-01
  0.92329E-02
  0.87995E-02
  0.91796E-02
  0.10437E-01
  0.12480E-01
  0.15023E-01
  0.17763E-01
  0.20499E-01
  0.23115E-01
  0.25440E-01
  0.27535E-01
  0.29391E-01
  0.31107E-01
  0.32617E-01
  0.33761E-01
  0.34455E-01
  0.34660E-01
  0.34289E-01
  0.33806E-01
  0.33141E-01
  0.32216E-01
  0.31332E-01
  0.30144E-01
  0.29097E-01
  0.28067E-01
  0.27162E-01
  0.26332E-01
  0.25566E-01
  0.24866E-01
  0.24164E-01
  0.23558E-01
  0.23010E-01
  0.22535E-01
  0.22147E-01
  0.21857E-01
  0.21667E-01
 -0.37578E-01
 -0.27185E-01
 -0.12112E-01
 -0.41584E-02
 -0.33999E-02
  0.12040E-03
 -0.24404E-02
 -0.55268E-02
  0.26500E-02
  0.17703E-01
  0.31686E-01
  0.41506E-01
  0.44671E-01
  0.42179E-01
  0.32796E-01
  0.16864E-01
 -0.28313E-02
 -0.26139E-01
 -0.51910E-01
 -0.67282E-01
 -0.59444E-01
 -0.47593E-01
 -0.45811E-01
 -0.43074E-01
 -0.40873E-01
 -0.37044E-01
 -0.41582E-01
  0.94512E-02
  0.10095E-01
  0.29913E-01
  0.35298E-01
 -0.15290E-01
  0.42483E-01
 -0.45923E-01
  0.15304E-01
 -0.46763E-02
  0.10977E-01
  0.72334E-02
 -0.40230E-02
  0.80109E-02
 -0.42140E-02
  0.10753E-01
  0.12782E-01
 -0.64068E-03
 -0.53639E-01
 -0.60183E-01
  0.23698E-01
  0.29870E-01
 -0.15968E-01
  0.28468E-01
  0.26818E-01
  0.15329E-01
  0.16489E-01
  0.10964E-01
  0.98854E-02
  0.10211E-01
 -0.13395E-01
  0.41422E-02
  0.96546E-02
  0.21882E-01
  0.82483E-02
  0.85243E-02
  0.13830E-01
  0.19213E-01
  0.33024E-01
  0.15465E-01
  0.46022E-02
  0.44257E-01
 -0.28546E-01
 -0.13559E-03
 -0.39680E-01
  0.22172E-01
  0.33277E-01
  0.22047E-02
  0.24055E-02
  0.71887E-02
  0.25200E-01
  0.10498E-01
  0.12356E-01
  0.90738E-02
  0.13899E-01
  0.10996E-01
  0.69907E-02
 -0.13581E-01
  0.20723E-01
  0.34270E-01
  0.10530E-01
  0.76938E-03
  0.21533E-01
 -0.39006E-01
 -0.36560E-01
 -0.35078E-01
 -0.36059E-01
 -0.34137E-01
 -0.35878E-01
 -0.33080E-01
 -0.34912E-01
 -0.30822E-01
 -0.32332E-01
 -0.35328E-01
 -0.31540E-01
 -0.27337E-01
 -0.32608E-01
 -0.27822E-01
 -0.26368E-01
 -0.22033E-01
 -0.18723E-01
 -0.15739E-01
 -0.19335E-01
 -0.14300E-01
 -0.18994E-01
 -0.15932E-01
 -0.21269E-01
 -0.20000E-01
 -0.25187E-01
 -0.24214E-01
 -0.10040E-01
 -0.28766E-01
 -0.25624E-01
 -0.19900E-01
 -0.18606E-01
 -0.26700E-01
 -0.12140E-01
 -0.97257E-02
 -0.12328E-01
 -0.48052E-02
 -0.41236E-02
  0.23029E-03
 -0.13033E-03
  0.20097E-02
  0.40840E-02
  0.36919E-02
  0.13807E-02
  0.84902E-03
  0.50558E-02
  0.44711E-03
 -0.47916E-02
 -0.64113E-02
  0.10230E-02
 -0.54017E-02
  0.28116E-02
 -0.24289E-02
 -0.10675E-01
 -0.62874E-02
  0.55769E-03
 -0.12935E-01
 -0.73591E-02
 -0.10816E-01
 -0.22834E-01
 -0.58728E-02
 -0.59624E-02
 -0.11340E-01
 -0.29003E-01
 -0.24069E-01
 -0.23703E-01
 -0.18449E-01
 -0.14972E-01
 -0.10562E-01
 -0.29515E-02
 -0.36126E-02
 -0.10643E-02
 -0.54666E-02
 -0.98766E-02
 -0.41973E-02
 -0.11492E-02
  0.15799E-02
  0.54277E-02
  0.11367E-03
  0.27997E-02
  0.57505E-02
  0.80460E-02
 -0.24132E-01
  0.71265E-02
  0.81512E-02
  0.71320E-02
  0.74322E-02
  0.86778E-02
  0.72125E-02
  0.81720E-02
  0.63806E-02
  0.64507E-02
  0.59041E-02
 -0.63103E-02
  0.93633E-03
  0.19925E-02
  0.62374E-02
  0.78051E-02
  0.44173E-02
 -0.19823E-01
  0.64992E-02
  0.63647E-02
 -0.15227E-01
  0.51263E-02
  0.27767E-02
  0.55454E-02
  0.55473E-02
  0.75694E-02
  0.70628E-02
  0.73080E-02
  0.64244E-02
  0.78462E-02
  0.97077E-02
  0.11317E-01
  0.56611E-02
  0.69138E-02
  0.86788E-02
  0.91729E-02
  0.10201E-01
  0.10204E-01
  0.11330E-01
  0.11347E-01
  0.12630E-01
  0.12782E-01
  0.14122E-01
  0.14585E-01
  0.15968E-01
  0.14966E-01
  0.16741E-01
  0.18032E-01
  0.18626E-01
  0.20264E-01
  0.20477E-01
  0.22385E-01
  0.22177E-01
  0.24215E-01
  0.23585E-01
  0.25690E-01
  0.24771E-01
  0.26792E-01
  0.25690E-01
  0.27487E-01
  0.23970E-01
  0.26335E-01
  0.27917E-01
  0.26750E-01
  0.28165E-01
  0.29439E-01
  0.29437E-01
  0.30746E-01
  0.30514E-01
  0.31774E-01
  0.31315E-01
  0.32419E-01
  0.31816E-01
  0.32675E-01
  0.32005E-01
  0.32541E-01
  0.31893E-01
  0.32025E-01
  0.31512E-01
  0.31195E-01
  0.31526E-01
  0.30182E-01
  0.30910E-01
  0.30154E-01
  0.20410E-01
  0.27124E-01
  0.25729E-01
  0.30153E-01
  0.30873E-01
  0.29062E-01
  0.28881E-01
  0.27531E-01
  0.27040E-01
  0.25584E-01
  0.24588E-01
  0.23177E-01
  0.21489E-01
  0.26130E-01
  0.24844E-01
  0.15454E-01
  0.32361E-01
  0.30295E-01
  0.31017E-01
  0.28836E-01
  0.27972E-01
  0.33455E-01
  0.20382E-01
  0.17869E-01
  0.26390E-01
  0.30606E-01
  0.31293E-01
  0.25254E-01
  0.24176E-01
  0.11037E-01
  0.17262E-01
  0.14128E-01
  0.22919E-01
  0.24444E-01
  0.26436E-01
  0.31368E-01
  0.31619E-01
  0.31357E-01
 -0.37099E-01
  0.23615E-01
  0.23156E-01
  0.22426E-01
  0.22181E-01
  0.21322E-01
  0.69659E-02
  0.31068E-01
  0.21282E-01
  0.79296E-02
 -0.98274E-02
 -0.14585E-01
  0.19448E-01
  0.14133E-01
  0.97182E-02
  0.10483E-01
  0.55051E-02
  0.71273E-02
  0.20683E-02
  0.44547E-02
 -0.24056E-03
 -0.37843E-02
 -0.67368E-02
 -0.14051E-02
 -0.61257E-02
 -0.12632E-01
 -0.10763E-01
 -0.47029E-02
 -0.80063E-02
 -0.26900E-02
 -0.43870E-02
 -0.10263E-01
 -0.53989E-02
 -0.11275E-01
 -0.59329E-02
 -0.10149E-02
 -0.91915E-03
  0.30219E-02
  0.37152E-02
  0.65228E-02
  0.74318E-02
  0.94195E-02
  0.10524E-01
  0.84270E-02
  0.11374E-01
  0.12631E-01
  0.13467E-01
  0.13976E-01
  0.14676E-01
  0.12071E-01
 -0.70957E-04
  0.10752E-01
  0.11799E-01
  0.13625E-01
  0.14570E-01
  0.14931E-01
  0.24635E-01
  0.69640E-02
  0.20374E-01
  0.20319E-01
  0.81694E-02
  0.14629E-01
  0.14384E-01
  0.14096E-01
  0.12549E-01
  0.12435E-01
  0.10086E-01
 -0.17551E-01
 -0.17958E-01
  0.99864E-02
  0.70345E-02
 -0.33046E-03
  0.19131E-02
 -0.22109E-02
  0.30086E-01
  0.78127E-02
  0.78294E-02
 -0.18732E-01
 -0.37542E-02
  0.93725E-02
  0.12914E-01
  0.13829E-01
  0.15984E-01
  0.16289E-01
  0.17322E-01
  0.17161E-01
  0.15974E-01
  0.16600E-01
  0.15155E-01
  0.17305E-01
  0.15723E-01
  0.14068E-01
  0.12562E-01
  0.11217E-01
  0.88389E-02
  0.69852E-02
  0.97316E-02
  0.47293E-02
  0.13733E-02
  0.83065E-02
  0.25114E-02
  0.66182E-02
  0.21379E-02
  0.35403E-02
 -0.47408E-02
  0.12347E-01
 -0.28930E-02
  0.45117E-03
  0.22060E-01
  0.21326E-01
 -0.12444E-01
  0.11970E-03
  0.11030E-01
  0.13276E-01
  0.19631E-01
  0.13085E-01
  0.71291E-02
 -0.14637E-01
 -0.18583E-01
  0.69162E-02
  0.69708E-02
  0.14849E-01
  0.33889E-02
  0.30737E-01
  0.31650E-01
  0.63691E-02
  0.74224E-02
  0.16245E-02
  0.10471E-01
  0.20218E-03
 -0.54826E-02
 -0.25088E-01
 -0.25179E-01
 -0.70066E-02
  0.31592E-01
  0.31029E-01
 -0.33184E-02
 -0.11968E-01
  0.99438E-03
 -0.51795E-02
 -0.58233E-02
 -0.57697E-03
 -0.21236E-01
 -0.27560E-01
 -0.12141E-03
  0.98504E-02
  0.10113E-01
 -0.46714E-02
  0.15492E-02
  0.19346E-01
  0.19097E-01
  0.77767E-02
  0.72331E-02
  0.13140E-01
  0.16312E-01
 -0.99074E-02
 -0.47587E-03
 -0.56757E-02
  0.12871E-02
 -0.17950E-01
 -0.58661E-02
  0.64859E-02
  0.13271E-01
 -0.10757E-01
 -0.44064E-02
  0.88510E-02
  0.22028E-01
  0.11255E-01
 -0.27252E-01
  0.46319E-02
  0.21442E-01
  0.41127E-02
  0.30893E-01
  0.30304E-01
  0.30243E-01
  0.29466E-01
  0.29510E-01
  0.29447E-01
  0.28564E-01
  0.73837E-02
  0.29523E-01
 -0.36037E-02
  0.57292E-03
  0.15020E-01
  0.69925E-02
  0.69217E-02
  0.31807E-02
  0.66052E-02
 -0.23310E-01
  0.31481E-01
  0.32297E-01
  0.19566E-01
  0.17914E-01
  0.17718E-01
  0.22728E-01
 -0.32634E-01
 -0.32339E-01
  0.65678E-02
 -0.11007E-01
 -0.17000E-01
 -0.39709E-02
 -0.90427E-03
 -0.44157E-02
 -0.13871E-02
 -0.33760E-02
  0.76781E-03
  0.28983E-05
 -0.44532E-03
  0.19048E-01
  0.17542E-01
  0.16252E-01
  0.15908E-01
  0.14636E-01
  0.14210E-01
  0.64279E-02
 -0.26589E-01
  0.39497E-02
  0.31223E-01
  0.31897E-01
  0.13836E-01
 -0.18078E-01
  0.46926E-02
  0.75157E-02
  0.32467E-02
  0.53714E-02
  0.91771E-02
  0.92109E-02
  0.10269E-01
 -0.23193E-02
  0.15299E-01
  0.95284E-02
 -0.31196E-01
 -0.13500E-01
  0.10882E-01
  0.28551E-01
  0.27620E-01
  0.27712E-01
  0.26800E-01
 -0.11935E-01
  0.10600E-01
 -0.39114E-01
 -0.39013E-01
 -0.31090E-01
 -0.36933E-01
  0.22628E-01
  0.23349E-01
  0.65687E-02
 -0.17220E-01
 -0.22373E-01
  0.10100E-01
  0.57973E-02
  0.30127E-02
  0.79508E-02
  0.77538E-02
  0.87029E-02
  0.85768E-02
 -0.39850E-01
  0.31790E-01
  0.28767E-01
  0.28041E-01
  0.77877E-02
  0.92480E-02
  0.22857E-01
  0.89602E-02
  0.72591E-02
  0.10466E-01
 -0.77228E-02
 -0.65677E-02
  0.70136E-02
  0.76180E-02
  0.12981E-01
  0.13657E-01
 -0.25844E-01
 -0.34893E-01
 -0.36184E-01
 -0.19295E-01
 -0.12677E-01
 -0.75038E-02
  0.14762E-01
  0.11943E-01
  0.13009E-01
 -0.10367E-02
  0.60934E-02
  0.12181E-02
  0.31462E-01
  0.32250E-01
  0.10300E-01
  0.23978E-02
  0.28174E-02
  0.29864E-02
  0.97384E-02
  0.32260E-01
  0.32969E-01
  0.31231E-01
  0.95529E-02
  0.93848E-02
  0.10522E-01
  0.30282E-01
 -0.12238E-01
 -0.73556E-02
 -0.14159E-01
  0.30410E-01
  0.27131E-01
  0.26336E-01
  0.25182E-01
  0.28805E-02
  0.96013E-03
 -0.59687E-02
  0.10525E-01
  0.63888E-02
  0.20492E-02
  0.55303E-02
  0.13011E-02
 -0.33775E-01
 -0.40416E-01
 -0.39144E-01
  0.26635E-01
  0.25872E-01
  0.26155E-01
  0.25291E-01
  0.10533E-01
  0.20702E-01
  0.20958E-01
  0.50407E-02
  0.24368E-01
  0.23097E-01
  0.25738E-01
 -0.11287E-01
 -0.10671E-01
  0.95182E-02
  0.94514E-02
  0.84105E-02
  0.94241E-02
  0.17476E-01
  0.16808E-01
  0.19057E-01
  0.16495E-01
  0.18716E-01
 -0.10833E-01
  0.28971E-01
  0.16329E-01
  0.13973E-01
 -0.41209E-01
 -0.42673E-01
  0.11989E-02
  0.33217E-02
  0.31707E-01
  0.38692E-02
  0.14180E-01
 -0.27146E-01
 -0.30895E-01
 -0.43928E-01
 -0.33174E-01
 -0.22779E-01
 -0.22529E-01
 -0.61183E-02
 -0.13908E-02
  0.17241E-01
  0.16395E-01
  0.16255E-01
  0.14692E-01
  0.14513E-01
  0.12606E-01
  0.12755E-01
  0.82334E-02
  0.94960E-02
  0.10149E-01
  0.10255E-01
  0.24968E-01
  0.24452E-01
  0.72798E-02
  0.79754E-02
  0.77455E-02
 -0.79046E-02
  0.18696E-01
  0.13427E-02
 -0.64724E-02
  0.20209E-01
  0.58835E-02
  0.48713E-02
  0.82203E-02
  0.84714E-02
 -0.23120E-01
  0.11156E-02
  0.37057E-02
 -0.40085E-01
 -0.32440E-01
 -0.20094E-01
 -0.12740E-01
 -0.92539E-02
 -0.17417E-01
 -0.42577E-02
 -0.82517E-02
  0.17388E-02
 -0.28843E-03
  0.81539E-02
  0.77085E-02
  0.14740E-01
  0.13801E-01
  0.19048E-01
  0.20898E-01
  0.23560E-01
  0.25896E-01
  0.27167E-01
  0.29688E-01
  0.28962E-01
  0.32644E-01
  0.32105E-01
  0.34599E-01
  0.33481E-01
  0.35315E-01
  0.36834E-01
  0.36897E-01
  0.38757E-01
  0.37953E-01
  0.39916E-01
  0.38397E-01
  0.36722E-01
  0.36640E-01
  0.38220E-01
  0.35923E-01
  0.36709E-01
  0.34690E-01
  0.34956E-01
  0.36930E-01
  0.34606E-01
  0.32786E-01
  0.31851E-01
  0.36538E-01
  0.35304E-01
  0.30412E-01
  0.28952E-01
  0.30006E-01
  0.26583E-01
  0.26001E-01
  0.23341E-01
  0.38686E-01
  0.31591E-01
  0.33984E-01
  0.21127E-01
  0.19193E-01
  0.21211E-01
  0.17819E-01
  0.14785E-01
  0.14490E-01
  0.10836E-01
  0.11641E-01
  0.80196E-02
  0.95761E-02
  0.66100E-02
  0.83504E-02
  0.17625E-01
  0.32528E-01
  0.31295E-01
  0.23907E-01
  0.34050E-01
  0.32658E-01
  0.38897E-01
  0.35303E-01
  0.27563E-01
  0.98470E-02
  0.21584E-01
  0.21155E-01
 -0.47806E-02
  0.69746E-02
 -0.39444E-01
 -0.11719E-02
 -0.64721E-02
  0.91848E-02
 -0.44233E-01
  0.83912E-02
  0.84178E-02
  0.12560E-01
  0.14243E-01
  0.65633E-02
  0.22821E-02
  0.12624E-02
 -0.12760E-02
  0.12244E-01
 -0.13308E-02
  0.66784E-02
  0.38091E-01
  0.10315E-01
  0.15698E-01
  0.52087E-02
  0.19539E-02
  0.16567E-01
  0.34201E-02
 -0.91021E-03
 -0.37323E-02
 -0.38909E-01
  0.41749E-02
  0.34696E-01
  0.40375E-01
 -0.30445E-02
 -0.48593E-01
 -0.38159E-02
  0.23539E-01
  0.20876E-01
  0.86789E-02
  0.32544E-01
  0.10881E-01
  0.11184E-01
  0.11854E-01
 -0.19799E-01
 -0.22751E-01
 -0.22458E-01
  0.23828E-01
  0.28213E-01
 -0.49519E-01
  0.12576E-01
  0.32192E-01
 -0.15671E-01
 -0.18120E-01
 -0.23697E-02
  0.75073E-02
  0.36312E-02
  0.56479E-02
  0.27935E-01
  0.23165E-01
  0.22586E-01
  0.13539E-01
  0.13579E-01
  0.15617E-01
  0.15278E-01
  0.34213E-01
  0.11068E-01
  0.10415E-01
 -0.96750E-05
  0.25350E-01
  0.27739E-01
 -0.37297E-02
  0.95124E-02
  0.83852E-02
 -0.91674E-02
  0.26089E-02
  0.10395E-01
  0.10542E-01
 -0.21126E-01
 -0.17622E-01
 -0.44750E-01
 -0.41319E-01
  0.12758E-01
  0.12005E-01
  0.12898E-01
  0.32395E-01
  0.30891E-01
  0.32870E-01
  0.16430E-01
  0.10857E-01
  0.35464E-02
 -0.20346E-01
 -0.24477E-01
  0.12873E-01
  0.38411E-01
  0.32127E-01
  0.30828E-01
  0.10591E-01
 -0.52667E-01
  0.33289E-01
  0.12360E-01
  0.14752E-01
  0.12474E-01
  0.93458E-02
  0.16503E-01
  0.78406E-02
  0.80653E-02
  0.82262E-02
  0.19118E-01
  0.96948E-02
  0.12822E-01
  0.62012E-02
  0.41405E-02
  0.15864E-01
 -0.46935E-01
 -0.19214E-01
 -0.21358E-01
 -0.16566E-01
 -0.22161E-01
  0.67800E-02
 -0.66452E-02
  0.26415E-01
 -0.15703E-01
  0.96614E-02
  0.86995E-02
  0.10962E-01
  0.35898E-01
  0.59081E-02
  0.12367E-01
  0.24023E-01
 -0.67166E-02
 -0.11450E-01
  0.10027E-01
 -0.14941E-02
 -0.39976E-01
  0.30407E-01
  0.31202E-01
  0.40941E-01
  0.41868E-01
  0.40237E-01
  0.41646E-01
  0.39945E-01
 -0.64670E-03
  0.23107E-01
  0.57168E-02
  0.44061E-01
  0.78422E-02
  0.81105E-02
  0.22272E-01
  0.24371E-01
  0.47088E-02
 -0.18766E-03
  0.77065E-02
 -0.20559E-03
 -0.84515E-02
  0.10299E-01
  0.16315E-01
 -0.43958E-02
 -0.83874E-02
 -0.88626E-02
 -0.67850E-02
  0.16483E-01
  0.12757E-01
  0.11145E-01
  0.10248E-01
  0.28983E-01
  0.43088E-01
  0.63308E-02
  0.63133E-02
  0.61270E-02
  0.10340E-02
  0.52162E-02
  0.57314E-02
  0.15328E-01
 -0.19626E-02
 -0.26338E-01
  0.35590E-02
  0.14093E-02
 -0.38844E-02
 -0.50388E-01
 -0.33227E-01
 -0.38606E-01
  0.31747E-01
  0.31892E-01
  0.32848E-01
  0.38251E-02
 -0.34060E-01
 -0.29762E-01
 -0.22029E-02
 -0.15039E-01
  0.23843E-01
  0.24411E-01
  0.16956E-01
  0.33558E-01
 -0.10072E-01
 -0.15392E-01
 -0.16036E-01
  0.20359E-01
  0.20541E-01
  0.21808E-01
  0.19120E-01
  0.20869E-01
  0.21494E-01
  0.23589E-01
  0.24328E-01
  0.30930E-01
  0.31242E-01
  0.31314E-01
  0.31246E-01
  0.11304E-01
  0.29508E-01
  0.28612E-01
  0.30457E-01
  0.30954E-01
  0.27581E-01
  0.29750E-01
  0.28827E-01
 -0.14291E-01
  0.12805E-01
  0.12883E-01
  0.12198E-01
  0.13062E-01
  0.13365E-01
  0.12179E-01
  0.13958E-01
  0.13627E-01
  0.13209E-01
  0.11200E-01
  0.10890E-01
  0.49899E-02
  0.25969E-01
  0.26475E-01
  0.27527E-01
  0.27739E-01
  0.28601E-01
  0.28591E-01
  0.28883E-01
 -0.67928E-02
 -0.10590E-01
  0.75505E-02
  0.26583E-01
  0.28824E-01
  0.29277E-01
 -0.20163E-01
 -0.14889E-01
  0.13275E-02
 -0.52993E-02
  0.23538E-01
  0.27595E-01
  0.27686E-01
  0.22256E-01
  0.99064E-02
  0.11142E-01
  0.11481E-01
  0.92857E-02
  0.89572E-02
  0.68406E-02
  0.56702E-02
  0.38487E-02
  0.55823E-02
  0.85873E-02
  0.93523E-02
  0.29589E-01
  0.85648E-02
  0.71952E-02
  0.78220E-02
  0.58439E-02
  0.67821E-02
  0.86876E-02
  0.79320E-02
  0.53743E-02
 -0.16740E-01
  0.24326E-01
  0.26539E-01
  0.27777E-01
  0.89895E-02
  0.11356E-01
  0.10537E-01
  0.11608E-01
  0.10656E-01
  0.11922E-01
  0.10679E-01
  0.89545E-02
  0.12445E-01
  0.12193E-01
  0.16866E-01
  0.16518E-01
  0.17791E-01
  0.16460E-01
  0.17668E-01
  0.18150E-01
  0.18904E-01
 -0.35629E-02
  0.24221E-01
 -0.45021E-01
  0.13461E-02
  0.74553E-02
 -0.11369E-01
  0.89885E-02
  0.84470E-02
  0.74871E-02
  0.72771E-02
  0.92892E-02
  0.86912E-02
  0.29864E-01
 -0.31006E-01
  0.19811E-02
  0.34638E-01
  0.70388E-02
  0.35817E-02
  0.13045E-01
  0.18864E-01
  0.92385E-02
  0.13600E-01
  0.30845E-02
  0.97004E-02
  0.66643E-02
  0.68582E-02
  0.12220E-01
  0.11391E-01
 -0.16161E-01
 -0.64561E-02
 -0.36905E-02
 -0.38942E-02
 -0.33630E-01
  0.95475E-02
  0.48153E-02
  0.14632E-01
  0.14082E-01
  0.13585E-01
  0.15150E-01
  0.13785E-01
  0.14907E-01
  0.15480E-01
  0.15062E-01
  0.15116E-01
  0.14976E-01
  0.13975E-01
  0.20069E-01
  0.20601E-01
  0.12011E-01
  0.98305E-02
 -0.27534E-01
  0.99436E-02
  0.10810E-01
  0.34118E-01
  0.33656E-01
  0.34213E-01
  0.33651E-01
  0.33902E-01
  0.91168E-02
  0.12312E-01
  0.11405E-01
  0.76399E-02
  0.10311E-01
  0.21348E-02
  0.21819E-01
  0.11483E-01
  0.15226E-01
 -0.46298E-02
 -0.88120E-02
 -0.12346E-01
  0.27084E-02
  0.41254E-02
  0.60484E-02
  0.32595E-02
  0.42392E-02
  0.28717E-02
  0.48088E-02
  0.36478E-02
  0.16511E-02
  0.27176E-02
  0.50511E-02
  0.69926E-02
  0.72865E-02
  0.90615E-02
  0.91541E-02
  0.16761E-01
  0.13346E-01
  0.10793E-01
  0.68989E-02
  0.70039E-02
 -0.16007E-01
  0.12462E-02
  0.12660E-02
 -0.20855E-01
 -0.14325E-01
  0.82978E-02
  0.11047E-02
  0.83077E-02
  0.63482E-02
 -0.64627E-02
  0.32852E-01
 -0.65469E-02
 -0.18549E-01
 -0.20951E-02
  0.66646E-02
  0.19191E-01
  0.35276E-01
  0.11156E-01
  0.10823E-01
 -0.95933E-02
  0.15439E-01
  0.48990E-02
 -0.21357E-01
 -0.22985E-02
  0.42101E-02
  0.89734E-02
  0.12976E-01
  0.46665E-03
  0.12984E-01
 -0.20731E-01
 -0.41144E-01
 -0.43383E-01
  0.63516E-02
 -0.45275E-02
  0.33893E-01
  0.14220E-01
  0.95450E-02
 -0.17086E-02
  0.25661E-01
  0.33958E-01
  0.22882E-01
 -0.38108E-01
  0.90855E-02
  0.11684E-01
  0.14102E-01
 -0.13641E-01
  0.28198E-02
  0.16824E-01
  0.73172E-02
 -0.37201E-01
  0.49733E-02
  0.16927E-01
  0.30298E-02
  0.41104E-01
  0.99272E-02
 -0.22824E-01
  0.22595E-01
 -0.23871E-02
  0.15075E-01
  0.11954E-01
  0.16140E-01
  0.40818E-02
  0.11486E-01
 -0.95408E-02
  0.22770E-02
  0.10195E-01
  0.29347E-01
 -0.40920E-03
  0.18424E-02
  0.31952E-01
 -0.23614E-01
 -0.27141E-01
  0.16900E-02
  0.22057E-01
 -0.61308E-01
 -0.62161E-01
  0.53917E-02
  0.21522E-01
 -0.11923E-01
 -0.22904E-01
 -0.44702E-01
  0.12466E-01
  0.10050E-01
  0.30396E-01
  0.17319E-01
  0.33761E-02
 -0.15620E-01
  0.17117E-01
  0.13937E-01
  0.36304E-02
  0.14158E-01
  0.31694E-01
  0.89353E-02
  0.20773E-01
  0.31270E-01
  0.10572E-01
  0.55184E-02
  0.19212E-01
 -0.44158E-01
 -0.18360E-01
  0.10242E-01
 -0.16489E-01
  0.30378E-01
  0.83342E-02
  0.92360E-02
  0.15875E-01
  0.20526E-01
  0.57693E-02
  0.26206E-01
  0.22791E-01
  0.70900E-02
  0.21110E-01
  0.75926E-02
  0.15748E-01
 -0.48445E-02
  0.83970E-02
  0.26565E-01
  0.11200E-01
 -0.45966E-01
  0.15608E-01
  0.29264E-01
  0.50531E-02
 -0.32696E-01
  0.34537E-01
  0.13360E-01
  0.79602E-02
  0.75488E-02
  0.31292E-01
 -0.65106E-02
  0.21190E-01
  0.27907E-01
  0.52707E-03
  0.19910E-01
  0.25628E-01
  0.19064E-01
  0.36287E-01
  0.32987E-01
  0.24494E-01
 -0.91176E-02
  0.22921E-01
  0.82338E-02
 -0.21968E-02
 -0.22891E-01