# vtk DataFile Version 2.0
Unstructured Grid UFVM-ECOMOD
ASCII
DATASET UNSTRUCTURED_GRID
 POINTS         1724  float
  0.00000E+00  0.00000E+00  0.00000E+00
  0.40000E+01  0.00000E+00  0.00000E+00
  0.40000E+01  0.20000E+01  0.00000E+00
  0.00000E+00  0.20000E+01  0.00000E+00
  0.15750E+01  0.10287E+01  0.00000E+00
  0.15677E+01  0.97091E+00  0.00000E+00
  0.15461E+01  0.91674E+00  0.00000E+00
  0.15118E+01  0.86961E+00  0.00000E+00
  0.14667E+01  0.83248E+00  0.00000E+00
  0.14138E+01  0.80767E+00  0.00000E+00
  0.13563E+01  0.79675E+00  0.00000E+00
  0.12979E+01  0.80041E+00  0.00000E+00
  0.12423E+01  0.81842E+00  0.00000E+00
  0.11929E+01  0.84963E+00  0.00000E+00
  0.11529E+01  0.89210E+00  0.00000E+00
  0.11247E+01  0.94315E+00  0.00000E+00
  0.11102E+01  0.99958E+00  0.00000E+00
  0.11102E+01  0.10578E+01  0.00000E+00
  0.11247E+01  0.11143E+01  0.00000E+00
  0.11529E+01  0.11653E+01  0.00000E+00
  0.11929E+01  0.12078E+01  0.00000E+00
  0.12423E+01  0.12390E+01  0.00000E+00
  0.12979E+01  0.12570E+01  0.00000E+00
  0.13563E+01  0.12607E+01  0.00000E+00
  0.14138E+01  0.12497E+01  0.00000E+00
  0.14667E+01  0.12249E+01  0.00000E+00
  0.15118E+01  0.11878E+01  0.00000E+00
  0.15461E+01  0.11407E+01  0.00000E+00
  0.15677E+01  0.10865E+01  0.00000E+00
  0.10000E+00  0.00000E+00  0.00000E+00
  0.20000E+00  0.00000E+00  0.00000E+00
  0.30000E+00  0.00000E+00  0.00000E+00
  0.40000E+00  0.00000E+00  0.00000E+00
  0.50000E+00  0.00000E+00  0.00000E+00
  0.60000E+00  0.00000E+00  0.00000E+00
  0.70000E+00  0.00000E+00  0.00000E+00
  0.80000E+00  0.00000E+00  0.00000E+00
  0.90000E+00  0.00000E+00  0.00000E+00
  0.10000E+01  0.00000E+00  0.00000E+00
  0.11000E+01  0.00000E+00  0.00000E+00
  0.12000E+01  0.00000E+00  0.00000E+00
  0.13000E+01  0.00000E+00  0.00000E+00
  0.14000E+01  0.00000E+00  0.00000E+00
  0.15000E+01  0.00000E+00  0.00000E+00
  0.16000E+01  0.00000E+00  0.00000E+00
  0.17000E+01  0.00000E+00  0.00000E+00
  0.18000E+01  0.00000E+00  0.00000E+00
  0.19000E+01  0.00000E+00  0.00000E+00
  0.20000E+01  0.00000E+00  0.00000E+00
  0.21000E+01  0.00000E+00  0.00000E+00
  0.22000E+01  0.00000E+00  0.00000E+00
  0.23000E+01  0.00000E+00  0.00000E+00
  0.24000E+01  0.00000E+00  0.00000E+00
  0.25000E+01  0.00000E+00  0.00000E+00
  0.26000E+01  0.00000E+00  0.00000E+00
  0.27000E+01  0.00000E+00  0.00000E+00
  0.28000E+01  0.00000E+00  0.00000E+00
  0.29000E+01  0.00000E+00  0.00000E+00
  0.30000E+01  0.00000E+00  0.00000E+00
  0.31000E+01  0.00000E+00  0.00000E+00
  0.32000E+01  0.00000E+00  0.00000E+00
  0.33000E+01  0.00000E+00  0.00000E+00
  0.34000E+01  0.00000E+00  0.00000E+00
  0.35000E+01  0.00000E+00  0.00000E+00
  0.36000E+01  0.00000E+00  0.00000E+00
  0.37000E+01  0.00000E+00  0.00000E+00
  0.38000E+01  0.00000E+00  0.00000E+00
  0.39000E+01  0.00000E+00  0.00000E+00
  0.40000E+01  0.10000E+00  0.00000E+00
  0.40000E+01  0.20000E+00  0.00000E+00
  0.40000E+01  0.30000E+00  0.00000E+00
  0.40000E+01  0.40000E+00  0.00000E+00
  0.40000E+01  0.50000E+00  0.00000E+00
  0.40000E+01  0.60000E+00  0.00000E+00
  0.40000E+01  0.70000E+00  0.00000E+00
  0.40000E+01  0.80000E+00  0.00000E+00
  0.40000E+01  0.90000E+00  0.00000E+00
  0.40000E+01  0.10000E+01  0.00000E+00
  0.40000E+01  0.11000E+01  0.00000E+00
  0.40000E+01  0.12000E+01  0.00000E+00
  0.40000E+01  0.13000E+01  0.00000E+00
  0.40000E+01  0.14000E+01  0.00000E+00
  0.40000E+01  0.15000E+01  0.00000E+00
  0.40000E+01  0.16000E+01  0.00000E+00
  0.40000E+01  0.17000E+01  0.00000E+00
  0.40000E+01  0.18000E+01  0.00000E+00
  0.40000E+01  0.19000E+01  0.00000E+00
  0.39000E+01  0.20000E+01  0.00000E+00
  0.38000E+01  0.20000E+01  0.00000E+00
  0.37000E+01  0.20000E+01  0.00000E+00
  0.36000E+01  0.20000E+01  0.00000E+00
  0.35000E+01  0.20000E+01  0.00000E+00
  0.34000E+01  0.20000E+01  0.00000E+00
  0.33000E+01  0.20000E+01  0.00000E+00
  0.32000E+01  0.20000E+01  0.00000E+00
  0.31000E+01  0.20000E+01  0.00000E+00
  0.30000E+01  0.20000E+01  0.00000E+00
  0.29000E+01  0.20000E+01  0.00000E+00
  0.28000E+01  0.20000E+01  0.00000E+00
  0.27000E+01  0.20000E+01  0.00000E+00
  0.26000E+01  0.20000E+01  0.00000E+00
  0.25000E+01  0.20000E+01  0.00000E+00
  0.24000E+01  0.20000E+01  0.00000E+00
  0.23000E+01  0.20000E+01  0.00000E+00
  0.22000E+01  0.20000E+01  0.00000E+00
  0.21000E+01  0.20000E+01  0.00000E+00
  0.20000E+01  0.20000E+01  0.00000E+00
  0.19000E+01  0.20000E+01  0.00000E+00
  0.18000E+01  0.20000E+01  0.00000E+00
  0.17000E+01  0.20000E+01  0.00000E+00
  0.16000E+01  0.20000E+01  0.00000E+00
  0.15000E+01  0.20000E+01  0.00000E+00
  0.14000E+01  0.20000E+01  0.00000E+00
  0.13000E+01  0.20000E+01  0.00000E+00
  0.12000E+01  0.20000E+01  0.00000E+00
  0.11000E+01  0.20000E+01  0.00000E+00
  0.10000E+01  0.20000E+01  0.00000E+00
  0.90000E+00  0.20000E+01  0.00000E+00
  0.80000E+00  0.20000E+01  0.00000E+00
  0.70000E+00  0.20000E+01  0.00000E+00
  0.60000E+00  0.20000E+01  0.00000E+00
  0.50000E+00  0.20000E+01  0.00000E+00
  0.40000E+00  0.20000E+01  0.00000E+00
  0.30000E+00  0.20000E+01  0.00000E+00
  0.20000E+00  0.20000E+01  0.00000E+00
  0.10000E+00  0.20000E+01  0.00000E+00
  0.00000E+00  0.19000E+01  0.00000E+00
  0.00000E+00  0.18000E+01  0.00000E+00
  0.00000E+00  0.17000E+01  0.00000E+00
  0.00000E+00  0.16000E+01  0.00000E+00
  0.00000E+00  0.15000E+01  0.00000E+00
  0.00000E+00  0.14000E+01  0.00000E+00
  0.00000E+00  0.13000E+01  0.00000E+00
  0.00000E+00  0.12000E+01  0.00000E+00
  0.00000E+00  0.11000E+01  0.00000E+00
  0.00000E+00  0.10000E+01  0.00000E+00
  0.00000E+00  0.90000E+00  0.00000E+00
  0.00000E+00  0.80000E+00  0.00000E+00
  0.00000E+00  0.70000E+00  0.00000E+00
  0.00000E+00  0.60000E+00  0.00000E+00
  0.00000E+00  0.50000E+00  0.00000E+00
  0.00000E+00  0.40000E+00  0.00000E+00
  0.00000E+00  0.30000E+00  0.00000E+00
  0.00000E+00  0.20000E+00  0.00000E+00
  0.00000E+00  0.10000E+00  0.00000E+00
  0.15713E+01  0.99981E+00  0.00000E+00
  0.15569E+01  0.94382E+00  0.00000E+00
  0.15290E+01  0.89318E+00  0.00000E+00
  0.14892E+01  0.85104E+00  0.00000E+00
  0.14402E+01  0.82007E+00  0.00000E+00
  0.13850E+01  0.80221E+00  0.00000E+00
  0.13271E+01  0.79858E+00  0.00000E+00
  0.12701E+01  0.80941E+00  0.00000E+00
  0.12176E+01  0.83402E+00  0.00000E+00
  0.11729E+01  0.87086E+00  0.00000E+00
  0.11388E+01  0.91762E+00  0.00000E+00
  0.11175E+01  0.97136E+00  0.00000E+00
  0.11102E+01  0.10287E+01  0.00000E+00
  0.11175E+01  0.10860E+01  0.00000E+00
  0.11388E+01  0.11398E+01  0.00000E+00
  0.11729E+01  0.11865E+01  0.00000E+00
  0.12176E+01  0.12234E+01  0.00000E+00
  0.12701E+01  0.12480E+01  0.00000E+00
  0.13271E+01  0.12588E+01  0.00000E+00
  0.13850E+01  0.12552E+01  0.00000E+00
  0.14402E+01  0.12373E+01  0.00000E+00
  0.14892E+01  0.12064E+01  0.00000E+00
  0.15290E+01  0.11642E+01  0.00000E+00
  0.15569E+01  0.11136E+01  0.00000E+00
  0.15713E+01  0.10576E+01  0.00000E+00
  0.15994E+01  0.10133E+01  0.00000E+00
  0.15863E+01  0.11089E+01  0.00000E+00
  0.25478E+01  0.10053E+00  0.00000E+00
  0.25434E+01  0.19142E+01  0.00000E+00
  0.11238E+01  0.89266E+00  0.00000E+00
  0.11061E+01  0.11423E+01  0.00000E+00
  0.15575E+01  0.89126E+00  0.00000E+00
  0.10894E+01  0.97917E+00  0.00000E+00
  0.15393E+01  0.11910E+01  0.00000E+00
  0.11627E+01  0.12175E+01  0.00000E+00
  0.14962E+01  0.82262E+00  0.00000E+00
  0.29512E+01  0.95010E-01  0.00000E+00
  0.29494E+01  0.19117E+01  0.00000E+00
  0.39186E+01  0.10466E+01  0.00000E+00
  0.11913E+01  0.82197E+00  0.00000E+00
  0.12788E+01  0.78594E+00  0.00000E+00
  0.21500E+01  0.86600E-01  0.00000E+00
  0.21472E+01  0.19005E+01  0.00000E+00
  0.14041E+01  0.78007E+00  0.00000E+00
  0.14641E+01  0.12550E+01  0.00000E+00
  0.13764E+01  0.12826E+01  0.00000E+00
  0.99450E-01  0.63780E+00  0.00000E+00
  0.92450E-01  0.13422E+01  0.00000E+00
  0.12473E+01  0.12677E+01  0.00000E+00
  0.65677E+00  0.19154E+01  0.00000E+00
  0.86110E-01  0.10467E+01  0.00000E+00
  0.75000E+00  0.86600E-01  0.00000E+00
  0.33379E+01  0.88030E-01  0.00000E+00
  0.33490E+01  0.19201E+01  0.00000E+00
  0.18500E+01  0.86600E-01  0.00000E+00
  0.18441E+01  0.19006E+01  0.00000E+00
  0.38922E+01  0.64055E+00  0.00000E+00
  0.39154E+01  0.13500E+01  0.00000E+00
  0.10564E+01  0.85180E-01  0.00000E+00
  0.94817E+00  0.19249E+01  0.00000E+00
  0.15421E+01  0.85450E-01  0.00000E+00
  0.15479E+01  0.19161E+01  0.00000E+00
  0.12386E+01  0.19130E+01  0.00000E+00
  0.45294E+00  0.85030E-01  0.00000E+00
  0.86890E-01  0.16531E+01  0.00000E+00
  0.36495E+01  0.78620E-01  0.00000E+00
  0.36510E+01  0.19107E+01  0.00000E+00
  0.10846E+01  0.10423E+01  0.00000E+00
  0.15860E+01  0.94842E+00  0.00000E+00
  0.13392E+01  0.77093E+00  0.00000E+00
  0.13108E+01  0.12864E+01  0.00000E+00
  0.87300E-01  0.35008E+00  0.00000E+00
  0.34468E+00  0.19176E+01  0.00000E+00
  0.39135E+01  0.16499E+01  0.00000E+00
  0.39252E+01  0.34254E+00  0.00000E+00
  0.13680E+01  0.88360E-01  0.00000E+00
  0.88350E-01  0.84594E+00  0.00000E+00
  0.23513E+01  0.77830E-01  0.00000E+00
  0.23488E+01  0.19154E+01  0.00000E+00
  0.27481E+01  0.80910E-01  0.00000E+00
  0.31480E+01  0.84140E-01  0.00000E+00
  0.31513E+01  0.19149E+01  0.00000E+00
  0.27502E+01  0.19198E+01  0.00000E+00
  0.39134E+01  0.85000E+00  0.00000E+00
  0.25071E+00  0.86200E-01  0.00000E+00
  0.91130E-01  0.18412E+01  0.00000E+00
  0.38461E+01  0.84360E-01  0.00000E+00
  0.38408E+01  0.19092E+01  0.00000E+00
  0.97440E-01  0.15849E+00  0.00000E+00
  0.15988E+01  0.10458E+01  0.00000E+00
  0.16261E+01  0.10305E+01  0.00000E+00
  0.16281E+01  0.99836E+00  0.00000E+00
  0.16554E+01  0.10148E+01  0.00000E+00
  0.16578E+01  0.98164E+00  0.00000E+00
  0.16863E+01  0.99914E+00  0.00000E+00
  0.16884E+01  0.96239E+00  0.00000E+00
  0.17222E+01  0.98417E+00  0.00000E+00
  0.17231E+01  0.93952E+00  0.00000E+00
  0.17605E+01  0.96435E+00  0.00000E+00
  0.17576E+01  0.10098E+01  0.00000E+00
  0.17991E+01  0.98970E+00  0.00000E+00
  0.17625E+01  0.91931E+00  0.00000E+00
[...]
 POINT_DATA         1724
  
 SCALARS WL      float 1
 LOOKUP_TABLE default
  0.21641E-01
  0.45739E-02
  0.27577E-03
  0.34344E-01
 -0.39228E-01
 -0.32552E-01
 -0.20109E-01
 -0.71438E-02
 -0.28219E-02
 -0.12452E-02
  0.10114E-02
 -0.50286E-02
 -0.36660E-03
  0.89177E-02
  0.25053E-01
  0.36661E-01
  0.43681E-01
  0.44073E-01
  0.37724E-01
  0.25885E-01
  0.73382E-02
 -0.14634E-01
 -0.38389E-01
 -0.61577E-01
 -0.66313E-01
 -0.51668E-01
 -0.47638E-01
 -0.44726E-01
 -0.41722E-01
  0.21399E-01
  0.20982E-01
  0.20411E-01
  0.19674E-01
  0.18714E-01
  0.17502E-01
  0.16045E-01
  0.14382E-01
  0.12382E-01
  0.10196E-01
  0.84082E-02
  0.68737E-02
  0.60002E-02
  0.62783E-02
  0.68696E-02
  0.77418E-02
  0.85063E-02
  0.90510E-02
  0.96092E-02
  0.99551E-02
  0.10334E-01
  0.10427E-01
  0.10370E-01
  0.97265E-02
  0.90393E-02
  0.82744E-02
  0.78788E-02
  0.79163E-02
  0.83262E-02
  0.94909E-02
  0.10985E-01
  0.12560E-01
  0.14174E-01
  0.15097E-01
  0.15577E-01
  0.14953E-01
  0.13365E-01
  0.11205E-01
  0.76827E-02
  0.00000E+00
  0.00000E+00
  0.00000E+00
  0.00000E+00
  0.00000E+00
  0.00000E+00
  0.00000E+00
  0.00000E+00
  0.00000E+00
  0.00000E+00
  0.00000E+00
  0.00000E+00
  0.00000E+00
  0.00000E+00
  0.00000E+00
  0.00000E+00
  0.00000E+00
  0.00000E+00
  0.00000E+00
  0.48902E-03
  0.15728E-02
  0.38742E-02
  0.64341E-02
  0.88509E-02
  0.11050E-01
  0.12074E-01
  0.11957E-01
  0.10691E-01
  0.87428E-02
  0.73013E-02
  0.72710E-02
  0.83024E-02
  0.98656E-02
  0.11462E-01
  0.12702E-01
  0.13413E-01
  0.13602E-01
  0.13354E-01
  0.12651E-01
  0.11752E-01
  0.10770E-01
  0.98038E-02
  0.92874E-02
  0.95856E-02
  0.10775E-01
  0.12774E-01
  0.15296E-01
  0.18036E-01
  0.20781E-01
  0.23408E-01
  0.25743E-01
  0.27841E-01
  0.29692E-01
  0.31388E-01
  0.32851E-01
  0.33921E-01
  0.34513E-01
  0.34602E-01
  0.34133E-01
  0.33625E-01
  0.32936E-01
  0.31993E-01
  0.31110E-01
  0.29940E-01
  0.28922E-01
  0.27934E-01
  0.27070E-01
  0.26277E-01
  0.25542E-01
  0.24866E-01
  0.24183E-01
  0.23592E-01
  0.23054E-01
  0.22587E-01
  0.22205E-01
  0.21919E-01
  0.21732E-01
 -0.37016E-01
 -0.26942E-01
 -0.12161E-01
 -0.36773E-02
 -0.28314E-02
  0.61770E-03
 -0.21259E-02
 -0.56335E-02
  0.23582E-02
  0.17485E-01
  0.31557E-01
  0.41433E-01
  0.44627E-01
  0.42165E-01
  0.32829E-01
  0.16974E-01
 -0.26115E-02
 -0.25772E-01
 -0.51323E-01
 -0.66646E-01
 -0.60106E-01
 -0.48288E-01
 -0.46358E-01
 -0.43068E-01
 -0.40488E-01
 -0.36628E-01
 -0.41538E-01
  0.88934E-02
  0.10890E-01
  0.29769E-01
  0.35320E-01
 -0.15327E-01
  0.42417E-01
 -0.46597E-01
  0.15434E-01
 -0.40912E-02
  0.96445E-02
  0.76714E-02
 -0.46306E-02
  0.77386E-02
 -0.42519E-02
  0.10136E-01
  0.13571E-01
 -0.19763E-03
 -0.54383E-01
 -0.59516E-01
  0.23718E-01
  0.29674E-01
 -0.15658E-01
  0.28771E-01
  0.26731E-01
  0.15326E-01
  0.14716E-01
  0.11656E-01
  0.90441E-02
  0.10878E-01
 -0.12872E-01
  0.39848E-02
  0.93833E-02
  0.22169E-01
  0.72918E-02
  0.89717E-02
  0.14111E-01
  0.19266E-01
  0.32848E-01
  0.13959E-01
  0.53071E-02
  0.44218E-01
 -0.28296E-01
  0.22579E-03
 -0.39189E-01
  0.22222E-01
  0.33467E-01
  0.24121E-02
  0.25142E-02
  0.63660E-02
  0.25178E-01
  0.10032E-01
  0.13214E-01
  0.81952E-02
  0.12193E-01
  0.11510E-01
  0.75271E-02
 -0.13979E-01
  0.20778E-01
  0.34169E-01
  0.94996E-02
  0.11814E-02
  0.21592E-01
 -0.38649E-01
 -0.36370E-01
 -0.34813E-01
 -0.35930E-01
 -0.33955E-01
 -0.35773E-01
 -0.32906E-01
 -0.34769E-01
 -0.30603E-01
 -0.32116E-01
 -0.35136E-01
 -0.31308E-01
 -0.27072E-01
 -0.32341E-01
 -0.27601E-01
 -0.26107E-01
 -0.21892E-01
 -0.18536E-01
 -0.15685E-01
 -0.19370E-01
 -0.14446E-01
 -0.19299E-01
 -0.16360E-01
 -0.21883E-01
 -0.20637E-01
 -0.26027E-01
 -0.24713E-01
 -0.10019E-01
 -0.29233E-01
 -0.25397E-01
 -0.20007E-01
 -0.18003E-01
 -0.27630E-01
 -0.11882E-01
 -0.90854E-02
 -0.11310E-01
 -0.40988E-02
 -0.32597E-02
  0.73383E-03
  0.22842E-03
  0.22393E-02
  0.43767E-02
  0.38060E-02
  0.13511E-02
  0.70303E-03
  0.50747E-02
  0.30184E-03
 -0.52300E-02
 -0.65811E-02
  0.10061E-02
 -0.52075E-02
  0.29741E-02
 -0.19819E-02
 -0.10090E-01
 -0.55084E-02
  0.10447E-02
 -0.11872E-01
 -0.63243E-02
 -0.94283E-02
 -0.22555E-01
 -0.47963E-02
 -0.46553E-02
 -0.98158E-02
 -0.29107E-01
 -0.24928E-01
 -0.23418E-01
 -0.19008E-01
 -0.14535E-01
 -0.10743E-01
 -0.20426E-02
 -0.29179E-02
 -0.26553E-04
 -0.52445E-02
 -0.10961E-01
 -0.48667E-02
 -0.24590E-02
  0.62660E-03
  0.40497E-02
  0.82165E-03
  0.35693E-02
  0.47163E-02
  0.69642E-02
 -0.23819E-01
  0.62630E-02
  0.74536E-02
  0.64372E-02
  0.69200E-02
  0.82058E-02
  0.69281E-02
  0.80012E-02
  0.63416E-02
  0.62643E-02
  0.58924E-02
 -0.57095E-02
  0.10217E-02
  0.22027E-02
  0.60323E-02
  0.76312E-02
  0.35666E-02
 -0.19483E-01
  0.63393E-02
  0.63179E-02
 -0.14799E-01
  0.52947E-02
  0.33035E-02
  0.61335E-02
  0.63147E-02
  0.81943E-02
  0.68657E-02
  0.71915E-02
  0.64426E-02
  0.77660E-02
  0.92691E-02
  0.10897E-01
  0.53119E-02
  0.69478E-02
  0.85946E-02
  0.89794E-02
  0.99873E-02
  0.98870E-02
  0.10998E-01
  0.11093E-01
  0.12280E-01
  0.12486E-01
  0.13760E-01
  0.14262E-01
  0.15615E-01
  0.14586E-01
  0.16394E-01
  0.17705E-01
  0.18320E-01
  0.19974E-01
  0.20214E-01
  0.22134E-01
  0.21952E-01
  0.23998E-01
  0.23391E-01
  0.25502E-01
  0.24603E-01
  0.26626E-01
  0.25540E-01
  0.27336E-01
  0.23830E-01
  0.26198E-01
  0.27775E-01
  0.26620E-01
  0.28028E-01
  0.29300E-01
  0.29302E-01
  0.30617E-01
  0.30388E-01
  0.31663E-01
  0.31207E-01
  0.32334E-01
  0.31736E-01
  0.32626E-01
  0.31962E-01
  0.32532E-01
  0.31893E-01
  0.32064E-01
  0.31563E-01
  0.31286E-01
  0.31486E-01
  0.30056E-01
  0.31014E-01
  0.30296E-01
  0.20187E-01
  0.26997E-01
  0.25617E-01
  0.30309E-01
  0.30984E-01
  0.29249E-01
  0.29052E-01
  0.27741E-01
  0.27233E-01
  0.25809E-01
  0.24801E-01
  0.23413E-01
  0.21719E-01
  0.26021E-01
  0.24756E-01
  0.15099E-01
  0.32245E-01
  0.30461E-01
  0.31128E-01
  0.28987E-01
  0.27796E-01
  0.33435E-01
  0.20631E-01
  0.18118E-01
  0.26625E-01
  0.30777E-01
  0.31401E-01
  0.25168E-01
  0.24115E-01
  0.10613E-01
  0.17524E-01
  0.14396E-01
  0.23122E-01
  0.24211E-01
  0.26326E-01
  0.31409E-01
  0.31651E-01
  0.31323E-01
 -0.37047E-01
  0.23551E-01
  0.23120E-01
  0.22386E-01
  0.22168E-01
  0.21305E-01
  0.66680E-02
  0.31237E-01
  0.21290E-01
  0.86405E-02
 -0.93718E-02
 -0.14259E-01
  0.19148E-01
  0.14388E-01
  0.10004E-01
  0.10774E-01
  0.58230E-02
  0.74436E-02
  0.24215E-02
  0.48001E-02
  0.14873E-03
 -0.33843E-02
 -0.62893E-02
 -0.98054E-03
 -0.56470E-02
 -0.12130E-01
 -0.10249E-01
 -0.41953E-02
 -0.74792E-02
 -0.21533E-02
 -0.38466E-02
 -0.97711E-02
 -0.48962E-02
 -0.10868E-01
 -0.54951E-02
 -0.49970E-03
 -0.44772E-03
  0.35568E-02
  0.42282E-02
  0.70934E-02
  0.79945E-02
  0.10044E-01
  0.11157E-01
  0.89811E-02
  0.12006E-01
  0.13327E-01
  0.14137E-01
  0.14699E-01
  0.15381E-01
  0.12688E-01
  0.35856E-03
  0.10582E-01
  0.11208E-01
  0.13047E-01
  0.15331E-01
  0.15636E-01
  0.24573E-01
  0.74583E-02
  0.20376E-01
  0.20292E-01
  0.87503E-02
  0.15247E-01
  0.14909E-01
  0.14721E-01
  0.12993E-01
  0.12962E-01
  0.10383E-01
 -0.17179E-01
 -0.17714E-01
  0.10402E-01
  0.71711E-02
  0.63725E-04
  0.21536E-02
 -0.21866E-02
  0.30306E-01
  0.78244E-02
  0.75676E-02
 -0.18145E-01
 -0.34261E-02
  0.94625E-02
  0.12868E-01
  0.13805E-01
  0.15828E-01
  0.16133E-01
  0.17027E-01
  0.16862E-01
  0.15805E-01
  0.16275E-01
  0.14949E-01
  0.16849E-01
  0.15348E-01
  0.13817E-01
  0.12458E-01
  0.11063E-01
  0.88046E-02
  0.68590E-02
  0.95165E-02
  0.45143E-02
  0.11579E-02
  0.80381E-02
  0.22653E-02
  0.66236E-02
  0.19194E-02
  0.35390E-02
 -0.41960E-02
  0.12691E-01
 -0.31979E-02
  0.44079E-03
  0.22069E-01
  0.21352E-01
 -0.12881E-01
  0.67695E-03
  0.11323E-01
  0.12894E-01
  0.19892E-01
  0.12391E-01
  0.68441E-02
 -0.14410E-01
 -0.18304E-01
  0.60866E-02
  0.62509E-02
  0.14408E-01
  0.37075E-02
  0.30956E-01
  0.31809E-01
  0.69533E-02
  0.78713E-02
  0.20356E-02
  0.98733E-02
  0.83072E-04
 -0.58688E-02
 -0.24940E-01
 -0.25126E-01
 -0.72400E-02
  0.31543E-01
  0.30927E-01
 -0.31756E-02
 -0.12567E-01
  0.81923E-03
 -0.54593E-02
 -0.58927E-02
 -0.39705E-03
 -0.21675E-01
 -0.27248E-01
  0.38679E-03
  0.94243E-02
  0.96121E-02
 -0.42807E-02
  0.20444E-02
  0.19340E-01
  0.19055E-01
  0.83473E-02
  0.64034E-02
  0.13883E-01
  0.15795E-01
 -0.94172E-02
  0.13155E-03
 -0.50635E-02
  0.20064E-02
 -0.17771E-01
 -0.64411E-02
  0.62273E-02
  0.13960E-01
 -0.10494E-01
 -0.57387E-02
  0.94993E-02
  0.22053E-01
  0.10827E-01
 -0.27162E-01
  0.48067E-02
  0.21478E-01
  0.43419E-02
  0.30804E-01
  0.30166E-01
  0.30116E-01
  0.29313E-01
  0.29347E-01
  0.29302E-01
  0.28414E-01
  0.66398E-02
  0.29780E-01
 -0.28074E-02
  0.14011E-02
  0.14884E-01
  0.74192E-02
  0.71679E-02
  0.33900E-02
  0.71523E-02
 -0.22380E-01
  0.31691E-01
  0.32437E-01
  0.19586E-01
  0.17893E-01
  0.17651E-01
  0.22735E-01
 -0.32749E-01
 -0.32288E-01
  0.70454E-02
 -0.11461E-01
 -0.17707E-01
 -0.30867E-02
 -0.15209E-03
 -0.36785E-02
 -0.79063E-03
 -0.28466E-02
  0.74574E-03
  0.43690E-03
 -0.45653E-04
  0.18960E-01
  0.17422E-01
  0.16153E-01
  0.15746E-01
  0.14498E-01
  0.13995E-01
  0.62022E-02
 -0.26407E-01
  0.49147E-02
  0.31103E-01
  0.31827E-01
  0.13437E-01
 -0.17880E-01
  0.48702E-02
  0.82548E-02
  0.35879E-02
  0.58904E-02
  0.86391E-02
  0.86498E-02
  0.97752E-02
 -0.28436E-02
  0.14783E-01
  0.83597E-02
 -0.30976E-01
 -0.13101E-01
  0.10469E-01
  0.28407E-01
  0.27486E-01
  0.27576E-01
  0.26691E-01
 -0.11711E-01
  0.10079E-01
 -0.39411E-01
 -0.39018E-01
 -0.30769E-01
 -0.36561E-01
  0.22650E-01
  0.23353E-01
  0.67861E-02
 -0.18006E-01
 -0.23033E-01
  0.10130E-01
  0.58784E-02
  0.36456E-02
  0.71335E-02
  0.68816E-02
  0.78712E-02
  0.77233E-02
 -0.40144E-01
  0.31863E-01
  0.29020E-01
  0.28319E-01
  0.77977E-02
  0.87458E-02
  0.22784E-01
  0.92317E-02
  0.74291E-02
  0.10051E-01
 -0.68560E-02
 -0.59240E-02
  0.63983E-02
  0.69300E-02
  0.12787E-01
  0.13544E-01
 -0.25640E-01
 -0.34779E-01
 -0.35986E-01
 -0.20226E-01
 -0.13250E-01
 -0.77765E-02
  0.14464E-01
  0.11795E-01
  0.12928E-01
 -0.10055E-02
  0.63382E-02
  0.13012E-02
  0.31320E-01
  0.32154E-01
  0.97400E-02
  0.27066E-02
  0.31024E-02
  0.32847E-02
  0.98129E-02
  0.32452E-01
  0.33077E-01
  0.31478E-01
  0.10204E-01
  0.10033E-01
  0.11165E-01
  0.30163E-01
 -0.12655E-01
 -0.80776E-02
 -0.14858E-01
  0.30237E-01
  0.27401E-01
  0.26622E-01
  0.25458E-01
  0.26272E-02
  0.36081E-03
 -0.53623E-02
  0.10638E-01
  0.67676E-02
  0.23145E-02
  0.59955E-02
  0.16469E-02
 -0.33558E-01
 -0.40398E-01
 -0.39052E-01
  0.26527E-01
  0.25793E-01
  0.26074E-01
  0.25242E-01
  0.11146E-01
  0.20740E-01
  0.21003E-01
  0.47498E-02
  0.24654E-01
  0.23373E-01
  0.26034E-01
 -0.11015E-01
 -0.10395E-01
  0.87273E-02
  0.86622E-02
  0.75816E-02
  0.86619E-02
  0.17296E-01
  0.17078E-01
  0.19326E-01
  0.16768E-01
  0.18988E-01
 -0.96385E-02
  0.29254E-01
  0.16603E-01
  0.14254E-01
 -0.41375E-01
 -0.42950E-01
  0.15600E-02
  0.35793E-02
  0.31538E-01
  0.43055E-02
  0.13824E-01
 -0.26654E-01
 -0.30356E-01
 -0.43483E-01
 -0.32607E-01
 -0.22248E-01
 -0.22025E-01
 -0.69526E-02
 -0.19028E-02
  0.16791E-01
  0.15762E-01
  0.15611E-01
  0.13901E-01
  0.13666E-01
  0.11704E-01
  0.11933E-01
  0.74865E-02
  0.87892E-02
  0.94725E-02
  0.95992E-02
  0.24919E-01
  0.24432E-01
  0.67180E-02
  0.72820E-02
  0.71753E-02
 -0.76821E-02
  0.18971E-01
  0.14508E-02
 -0.61936E-02
  0.20255E-01
  0.63412E-02
  0.52396E-02
  0.87306E-02
  0.76854E-02
 -0.22662E-01
  0.66621E-03
  0.34905E-02
 -0.40145E-01
 -0.31894E-01
 -0.19637E-01
 -0.12311E-01
 -0.88744E-02
 -0.17013E-01
 -0.39295E-02
 -0.79268E-02
  0.20181E-02
 -0.22757E-04
  0.83881E-02
  0.79221E-02
  0.14932E-01
  0.14019E-01
  0.19233E-01
  0.21051E-01
  0.23715E-01
  0.26018E-01
  0.27297E-01
  0.29782E-01
  0.29049E-01
  0.32703E-01
  0.32176E-01
  0.34636E-01
  0.33531E-01
  0.35331E-01
  0.36839E-01
  0.36883E-01
  0.38736E-01
  0.37915E-01
  0.39874E-01
  0.38337E-01
  0.36666E-01
  0.36561E-01
  0.38138E-01
  0.35824E-01
  0.36605E-01
  0.34571E-01
  0.34832E-01
  0.36823E-01
  0.34477E-01
  0.32640E-01
  0.31696E-01
  0.36427E-01
  0.35229E-01
  0.30242E-01
  0.28769E-01
  0.29840E-01
  0.26380E-01
  0.25807E-01
  0.23116E-01
  0.38684E-01
  0.31675E-01
  0.34014E-01
  0.20905E-01
  0.18948E-01
  0.20958E-01
  0.17553E-01
  0.14534E-01
  0.14234E-01
  0.10615E-01
  0.11426E-01
  0.78789E-02
  0.94357E-02
  0.65781E-02
  0.82973E-02
  0.17836E-01
  0.32580E-01
  0.31137E-01
  0.23715E-01
  0.33934E-01
  0.32523E-01
  0.38805E-01
  0.35251E-01
  0.27644E-01
  0.96108E-02
  0.21626E-01
  0.21205E-01
 -0.55940E-02
  0.61981E-02
 -0.39563E-01
 -0.42217E-03
 -0.54326E-02
  0.91558E-02
 -0.44748E-01
  0.77515E-02
  0.78218E-02
  0.11536E-01
  0.13295E-01
  0.67444E-02
  0.25192E-02
  0.13022E-02
 -0.10747E-02
  0.12018E-01
 -0.98358E-03
  0.66109E-02
  0.37995E-01
  0.10398E-01
  0.15396E-01
  0.53768E-02
  0.23077E-02
  0.16285E-01
  0.36373E-02
 -0.45937E-03
 -0.33157E-02
 -0.38779E-01
  0.44615E-02
  0.34575E-01
  0.40370E-01
 -0.25727E-02
 -0.49427E-01
 -0.35788E-02
  0.23524E-01
  0.21154E-01
  0.78469E-02
  0.32415E-01
  0.10055E-01
  0.10440E-01
  0.11637E-01
 -0.20555E-01
 -0.23115E-01
 -0.22802E-01
  0.24092E-01
  0.28455E-01
 -0.50060E-01
  0.12159E-01
  0.32273E-01
 -0.14823E-01
 -0.18018E-01
 -0.19350E-02
  0.75378E-02
  0.35966E-02
  0.64404E-02
  0.27740E-01
  0.23185E-01
  0.22618E-01
  0.12621E-01
  0.12753E-01
  0.14342E-01
  0.14137E-01
  0.34142E-01
  0.11726E-01
  0.11113E-01
 -0.74720E-03
  0.25507E-01
  0.27879E-01
 -0.38025E-02
  0.91364E-02
  0.78845E-02
 -0.78129E-02
  0.30699E-02
  0.97973E-02
  0.99261E-02
 -0.20929E-01
 -0.17657E-01
 -0.45208E-01
 -0.41501E-01
  0.12402E-01
  0.11833E-01
  0.12804E-01
  0.32267E-01
  0.30746E-01
  0.32836E-01
  0.16201E-01
  0.11148E-01
  0.35365E-02
 -0.19485E-01
 -0.24201E-01
  0.12838E-01
  0.38417E-01
  0.32355E-01
  0.31100E-01
  0.99949E-02
 -0.52740E-01
  0.33213E-01
  0.11927E-01
  0.14710E-01
  0.12720E-01
  0.84597E-02
  0.16096E-01
  0.71017E-02
  0.73787E-02
  0.77660E-02
  0.19347E-01
  0.88984E-02
  0.12234E-01
  0.56137E-02
  0.35336E-02
  0.15239E-01
 -0.47550E-01
 -0.18854E-01
 -0.21078E-01
 -0.16361E-01
 -0.21989E-01
  0.63469E-02
 -0.58631E-02
  0.26596E-01
 -0.15434E-01
  0.95427E-02
  0.86618E-02
  0.10874E-01
  0.35922E-01
  0.57445E-02
  0.12815E-01
  0.24139E-01
 -0.71001E-02
 -0.11995E-01
  0.10516E-01
 -0.32075E-03
 -0.39767E-01
  0.30531E-01
  0.31298E-01
  0.40914E-01
  0.41822E-01
  0.40176E-01
  0.41585E-01
  0.39871E-01
 -0.28769E-03
  0.23140E-01
  0.58464E-02
  0.44009E-01
  0.69864E-02
  0.73111E-02
  0.22008E-01
  0.24134E-01
  0.33374E-02
 -0.91114E-03
  0.69553E-02
 -0.22416E-03
 -0.85827E-02
  0.95584E-02
  0.16474E-01
 -0.37829E-02
 -0.78797E-02
 -0.85255E-02
 -0.62704E-02
  0.16756E-01
  0.12003E-01
  0.10458E-01
  0.96170E-02
  0.28820E-01
  0.43065E-01
  0.64669E-02
  0.67874E-02
  0.65850E-02
  0.14850E-02
  0.53332E-02
  0.59122E-02
  0.15083E-01
 -0.18314E-02
 -0.25952E-01
  0.33493E-02
  0.18267E-02
 -0.35401E-02
 -0.49784E-01
 -0.32737E-01
 -0.38576E-01
  0.31796E-01
  0.31695E-01
  0.32872E-01
  0.42216E-02
 -0.33666E-01
 -0.29536E-01
 -0.20191E-02
 -0.16346E-01
  0.23846E-01
  0.24410E-01
  0.16633E-01
  0.33422E-01
 -0.10821E-01
 -0.15654E-01
 -0.15991E-01
  0.20294E-01
  0.20432E-01
  0.21721E-01
  0.18981E-01
  0.20710E-01
  0.21444E-01
  0.23481E-01
  0.24234E-01
  0.30856E-01
  0.31218E-01
  0.31308E-01
  0.31296E-01
  0.11015E-01
  0.29370E-01
  0.28472E-01
  0.30344E-01
  0.30876E-01
  0.27450E-01
  0.29618E-01
  0.28690E-01
 -0.13898E-01
  0.13637E-01
  0.13726E-01
  0.13041E-01
  0.13890E-01
  0.14185E-01
  0.12974E-01
  0.14760E-01
  0.14426E-01
  0.14007E-01
  0.12006E-01
  0.11609E-01
  0.51461E-02
  0.25918E-01
  0.26390E-01
  0.27400E-01
  0.27613E-01
  0.28439E-01
  0.28432E-01
  0.28714E-01
 -0.70881E-02
 -0.10775E-01
  0.66753E-02
  0.26381E-01
  0.28665E-01
  0.29131E-01
 -0.20184E-01
 -0.15500E-01
  0.15472E-02
 -0.49530E-02
  0.23354E-01
  0.27465E-01
  0.27556E-01
  0.22131E-01
  0.94347E-02
  0.11455E-01
  0.11782E-01
  0.96274E-02
  0.92842E-02
  0.72152E-02
  0.60305E-02
  0.42620E-02
  0.60161E-02
  0.89066E-02
  0.97208E-02
  0.29803E-01
  0.90941E-02
  0.76869E-02
  0.83868E-02
  0.63820E-02
  0.73692E-02
  0.93076E-02
  0.85509E-02
  0.59624E-02
 -0.16666E-01
  0.24623E-01
  0.26844E-01
  0.28075E-01
  0.85508E-02
  0.12072E-01
  0.11219E-01
  0.12329E-01
  0.11334E-01
  0.12643E-01
  0.11352E-01
  0.95854E-02
  0.13204E-01
  0.12914E-01
  0.16894E-01
  0.16523E-01
  0.17823E-01
  0.16435E-01
  0.17679E-01
  0.18195E-01
  0.18950E-01
 -0.31004E-02
  0.24303E-01
 -0.44431E-01
  0.11561E-02
  0.79786E-02
 -0.11758E-01
  0.82920E-02
  0.91313E-02
  0.80849E-02
  0.77713E-02
  0.99081E-02
  0.91599E-02
  0.29674E-01
 -0.30711E-01
  0.17665E-02
  0.34524E-01
  0.61500E-02
  0.41444E-02
  0.13860E-01
  0.18896E-01
  0.98429E-02
  0.13537E-01
  0.36046E-02
  0.85970E-02
  0.71397E-02
  0.62963E-02
  0.12969E-01
  0.11359E-01
 -0.15677E-01
 -0.65216E-02
 -0.35102E-02
 -0.35682E-02
 -0.33695E-01
  0.97086E-02
  0.53118E-02
  0.13873E-01
  0.14710E-01
  0.12869E-01
  0.14164E-01
  0.13171E-01
  0.14056E-01
  0.14120E-01
  0.13953E-01
  0.14401E-01
  0.14050E-01
  0.12628E-01
  0.20124E-01
  0.20653E-01
  0.11643E-01
  0.91875E-02
 -0.27287E-01
  0.97722E-02
  0.10889E-01
  0.34221E-01
  0.33785E-01
  0.34237E-01
  0.33695E-01
  0.33829E-01
  0.95592E-02
  0.10755E-01
  0.12257E-01
  0.80546E-02
  0.97752E-02
  0.25240E-02
  0.21874E-01
  0.12097E-01
  0.13444E-01
 -0.38724E-02
 -0.94010E-02
 -0.13208E-01
  0.23041E-02
  0.41711E-02
  0.59836E-02
  0.34209E-02
  0.45635E-02
  0.32562E-02
  0.52978E-02
  0.41990E-02
  0.20633E-02
  0.33050E-02
  0.57259E-02
  0.77374E-02
  0.79972E-02
  0.97959E-02
  0.99012E-02
  0.15106E-01
  0.12038E-01
  0.99550E-02
  0.63683E-02
  0.67008E-02
 -0.16456E-01
  0.14722E-02
  0.23132E-02
 -0.20326E-01
 -0.13834E-01
  0.89055E-02
  0.72894E-03
  0.85865E-02
  0.66368E-02
 -0.65206E-02
  0.32901E-01
 -0.59833E-02
 -0.19192E-01
 -0.24160E-02
  0.64436E-02
  0.18995E-01
  0.35272E-01
  0.11749E-01
  0.10345E-01
 -0.10312E-01
  0.15239E-01
  0.52815E-02
 -0.21463E-01
 -0.17471E-02
  0.41536E-02
  0.96120E-02
  0.11957E-01
  0.13073E-02
  0.12678E-01
 -0.19724E-01
 -0.41353E-01
 -0.43780E-01
  0.63358E-02
 -0.31638E-02
  0.33797E-01
  0.14976E-01
  0.87910E-02
 -0.20957E-02
  0.25581E-01
  0.33965E-01
  0.22870E-01
 -0.38024E-01
  0.97851E-02
  0.12373E-01
  0.14070E-01
 -0.13547E-01
  0.31953E-02
  0.16546E-01
  0.66978E-02
 -0.37116E-01
  0.52428E-02
  0.16456E-01
  0.32264E-02
  0.41089E-01
  0.10590E-01
 -0.23689E-01
  0.22637E-01
 -0.19755E-02
  0.14784E-01
  0.12553E-01
  0.15904E-01
  0.41788E-02
  0.10821E-01
 -0.94914E-02
  0.27734E-02
  0.94982E-02
  0.29638E-01
  0.47996E-04
  0.20018E-02
  0.32204E-01
 -0.23527E-01
 -0.26548E-01
  0.17707E-02
  0.22091E-01
 -0.61459E-01
 -0.61693E-01
  0.55330E-02
  0.21788E-01
 -0.11607E-01
 -0.22772E-01
 -0.45142E-01
  0.11279E-01
  0.10411E-01
  0.30243E-01
  0.17072E-01
  0.39432E-02
 -0.14676E-01
  0.16809E-01
  0.14217E-01
  0.39217E-02
  0.13634E-01
  0.31793E-01
  0.81234E-02
  0.20889E-01
  0.31327E-01
  0.96087E-02
  0.57097E-02
  0.18930E-01
 -0.44566E-01
 -0.17846E-01
  0.95260E-02
 -0.17017E-01
  0.30633E-01
  0.77145E-02
  0.98055E-02
  0.15186E-01
  0.20550E-01
  0.57750E-02
  0.26461E-01
  0.22628E-01
  0.72444E-02
  0.21164E-01
  0.80656E-02
  0.15515E-01
 -0.43287E-02
  0.81938E-02
  0.26455E-01
  0.11032E-01
 -0.45985E-01
  0.15007E-01
  0.29129E-01
  0.54969E-02
 -0.32412E-01
  0.34531E-01
  0.12961E-01
  0.73626E-02
  0.71609E-02
  0.31213E-01
 -0.58679E-02
  0.21246E-01
  0.28132E-01
  0.75539E-03
  0.19947E-01
  0.25576E-01
  0.19341E-01
  0.36254E-01
  0.32848E-01
  0.24740E-01
 -0.93033E-02
  0.23208E-01
  0.74554E-02
 -0.19461E-02
 -0.22634E-01